<?xml version="1.0"?>
<VTKFile type="PolyData" version="0.1" byte_order="LittleEndian" header_type="UInt32" compressor="vtkZLibDataCompressor">
  <PolyData>
    <Piece NumberOfPoints="23105" NumberOfVerts="0" NumberOfLines="0" NumberOfStrips="0" NumberOfPolys="42885">
      <PointData>
      </PointData>
      <CellData>
        <DataArray type="Float32" Name="cp_xtr_max" format="ascii" RangeMin="0.10376141965389252" RangeMax="2.8251588344573975">
          1.8683007 1.8007804 2.0200999 1.989594 2.0344448 2.0573568
          1.9462398 2.1525455 1.9020247 1.8167709 1.66363 2.0095139
          2.2955227 1.5398986 1.8700672 1.9601874 2.2087007 2.6219568
          2.0558288 2.0931594 1.7336125 1.6920305 1.1518496 1.2177823
          1.2679845 1.300755 1.2615377 1.2467457 1.2902896 1.1262922
          1.2422653 1.2813369 1.4111803 1.8927649 1.7329508 1.5529615
          1.4914061 1.7998772 1.8101038 2.0638087 1.6642255 1.7121162
          1.6157466 1.5517652 1.8365592 2.1605575 1.6245763 1.5930533
          2.1211092 2.1032944 1.6737504 2.1189637 1.8982222 1.9648758
          1.683072 1.7101146 1.9247768 1.9264915 1.9082443 2.0986261
          1.9018418 1.8898152 2.040183 1.9335407 1.2814665 1.6818393
          2.1516414 0.8250209 1.539106 1.4861696 1.686776 2.0719063
          1.917931 0.878853 1.0554827 1.4722598 0.88885266 1.1306826
          1.4444026 1.1781486 1.07646 1.0847802 1.2588248 1.3712609
          1.3322456 1.1621643 1.1618718 1.1070379 2.1525083 1.782306
          1.4742041 2.0722332 1.2766507 2.2134433 1.9053222 1.8541538
          1.5632056 1.7791275 2.0528626 1.932841 1.3372009 1.6072582
          1.6023623 1.6646845 1.9516046 1.6778222 1.6464225 1.7448826
          1.4340913 1.6507283 1.8893017 1.7705051 1.5597295 1.8129095
          1.8001335 1.9347887 1.7039704 1.8598431 1.7362163 1.6852131
          1.9642824 1.8247831 1.9032884 1.740452 1.3657995 1.0774764
          1.0068566 1.4957772 1.3923934 1.2869226 1.3568993 1.1789643
          0.9867718 1.621279 1.5755755 1.4804038 1.3746853 1.1224632
          0.94783664 1.610542 1.3490126 1.2041835 1.2655014 0.962799
          1.141776 1.4685028 1.335349 1.6892968 2.4586914 2.2635438
          1.882581 1.9815221 2.3166084 2.4875119 2.2069402 2.2940245
          2.4750443 2.3674986 1.9590855 2.1221309 2.1409965 2.3484523
          1.9952399 2.3432214 2.4790943 2.3519864 1.2438916 1.4284128
          1.0861546 1.1149085 1.5313672 1.5779868 1.8170881 1.4199989
          1.4240481 1.1459552 1.4505084 1.2800356 1.1203448 1.699604
          1.3632262 0.8863828 1.4220657 1.08568 1.3013085 0.9468776
          1.7932419 1.7345637 1.2464439 2.0291715 1.504189 1.2591522
          1.713936 1.6230587 1.7825893 1.8230467 1.6709085 1.85427
          1.5445535 1.7138027 1.7535018 2.0231318 1.6872636 1.7003875
          1.4056425 1.9389049 1.5181526 1.619446 1.6644849 1.7345564
          2.028973 1.6369507 1.671736 1.107006 1.2032503 1.758017
          1.6817919 1.4101824 1.4438202 1.3503044 2.0521421 1.8082048
          1.5656629 1.8385037 1.6746484 1.4276909 1.5457056 1.271458
          1.650325 1.9473227 1.8592434 1.8190622 1.7830387 1.5766519
          1.1754255 1.1173111 1.6260972 1.3305899 1.6022519 1.2925769
          1.5708845 1.9087546 1.2716962 1.791778 1.3375987 1.3258778
          1.70428 1.6704527 1.3825036 1.2505014 1.8525904 1.9296184
          1.5958117 1.9717575 1.4018086 1.2024554 1.6405922 1.4125446
          1.7046937 1.5946883 1.5414242 2.1583912 1.8553982 1.6942691
          1.548796 1.5856594 1.2914782 1.6239572 1.6752205 1.4945626
          2.0800502 1.8378217 1.5066988 1.5336065 1.4319268 1.7021723
          1.9043933 1.7713416 1.8394934 1.2569855 1.3637594 1.4680187
          1.4777957 1.4018466 1.1851919 2.0846379 1.493737 1.7370437
          1.6947898 1.789068 1.5674227 1.8352597 1.8224354 2.169923
          1.4444388 1.4093882 1.2161821 1.780594 1.653862 1.729185
          1.5236384 1.5494459 1.4687934 1.5857189 1.5095747 1.8899442
          1.6476824 1.6979415 1.3133023 1.4740452 1.7222265 1.7820044
          1.3479209 1.2808717 1.753581 1.7720691 1.5660696 1.3174679
          1.1733198 1.6999987 1.3920767 1.9002734 0.9758027 1.2537258
          1.2378842 1.464484 1.3853686 1.3714063 0.9256127 1.5057157
          1.449964 1.5268674 1.2730447 1.3652583 1.716944 1.1543859
          1.0732512 1.5232595 1.5226403 1.0386966 1.4702536 1.2403847
          1.3434252 1.7499046 1.6553767 1.5367633 1.4930743 1.0776215
          1.5797466 1.3664353 1.3975391 1.1464424 1.4644922 1.3541675
          1.4646152 1.5891677 1.4664375 1.5335436 1.1240687 0.8531476
          0.97413766 1.3266802 1.021147 1.305665 1.0879014 1.1678268
          1.5643153 1.6547834 1.3450111 1.2798246 1.1448197 1.5776477
          1.0847427 1.1921608 1.4824158 1.0317097 1.0396345 1.2750905
          1.4285915 1.3298136 1.619552 1.6089635 0.8777844 1.195199
          0.92887145 0.93611443 0.97501856 1.3049799 1.0841337 1.11098
          1.856162 1.3657191 0.7479698 0.71247256 1.1291783 1.1067517
          1.5525244 1.9485967 1.6428905 1.7609199 1.1912378 0.8861801
          0.79098463 1.2251387 1.2029046 1.3783168 1.1732174 1.2032577
          1.0179889 1.4698905 1.7554997 1.3234824 1.3239721 1.0456885
          0.907838 1.1898373 1.2601154 1.173672 1.1092073 0.97886455
          1.1101812 1.2301761 1.6937572 1.2766645 0.9929986 1.8837667
          1.4474657 0.80809164 0.8526354 1.0036045 1.1492133 1.4093709
          0.9839678 1.4133648 1.404211 1.4410651 1.7533383 1.4937072
          1.2135386 0.8735795 0.98082536 1.0105879 1.0561508 1.6321486
          1.4176406 1.3574879 1.2444556 1.0565742 1.1664408 1.1605253
          1.4104996 0.98892474 1.1330802 0.9588463 1.0151576 1.0083671
          1.2552705 0.9110276 1.4934161 1.4311873 0.7451087 0.75537825
          0.7601953 0.82093674 1.2674196 1.1894794 1.094788 1.2649977
          1.4307737 1.323887 1.399367 1.5508614 1.4776062 1.2481637
          1.1188846 1.0946536 0.9619355 1.0038666 0.9534508 1.5500575
          1.5908468 1.2024993 1.1284616 1.0158252 1.151376 1.407125
          1.2374226 1.2255152 0.98806185 0.72800756 0.89172214 1.2398539
          1.9262762 1.8221079 1.3076898 0.9851288 0.84069824 0.8872325
          1.0280684 1.0158705 1.5170729 1.3783641 0.9335766 0.8871091
          0.8704012 0.7622114 0.7751175 1.0135336 1.7445287 1.3116057
          1.4810451 1.3037684 1.3507874 1.3404757 1.6313632 1.1840758
          1.2095739 0.94293004 0.93848133 0.9689224 1.1971133 1.2084278
          1.3353679 1.3987074 1.1036323 1.3955265 1.1549429 1.1151936
          1.0550736 1.1783329 1.098862 1.0709304 1.1425666 1.1389819
          1.138705 1.3124949 1.381299 1.4480522 1.2811801 1.2688565
          1.431462 1.0262209 1.1342208 1.1645607 1.3275279 0.95233583
          0.8581014 0.7900425 0.7938978 1.3026006 0.7746584 0.8416354
          1.2717842 0.85989136 0.84740233 0.9793741 0.97314405 0.8980637
          0.88856536 0.8872436 1.0367638 1.3298198 1.5468669 1.0292652
          1.372452 1.6945444 1.6065073 1.4052793 1.2780032 0.96186656
          1.1516219 1.0689312 1.1757435 1.0218983 1.360264 1.3652023
          1.3783103 1.5936686 1.1868877 0.99875015 1.1754541 1.1211873
          0.9868642 0.7881789 0.82820636 0.7134806 0.82888097 0.9152927
          1.1620914 0.9047097 0.93961996 0.7925239 0.87540364 1.1330792
          1.0258714 1.2088137 1.5023557 1.2005688 1.2008575 1.5971726
          1.6095207 1.2336761 1.1293983 0.8622771 1.5242054 1.4532455
          1.5010372 1.700273 1.557506 1.3634619 1.6435716 1.5254968
          1.4277884 1.4019161 1.262839 1.324193 1.453647 1.4649249
          1.3517414 1.3754789 1.3693551 1.574851 1.5471995 1.2914158
          1.4261334 1.4256161 1.6513467 0.83764315 1.3423377 0.8649385
          1.2583187 1.5843809 1.5906185 0.90149474 1.4145871 0.8467086
          0.122342 0.13323127 0.11511136 0.12762591 0.16246174 0.10545658
          0.14605835 0.12854163 0.11686459 0.11336786 0.13626039 0.11054039
          0.1257245 0.12068701 0.12627487 0.13230024 0.104517415 0.12795208
          0.11481991 0.12546341 0.12993352 0.112815455 0.13124143 0.12541552
          0.122942574 0.12760317 0.116600715 0.13087682 0.12767631 0.12602198
          0.13107741 0.10376142 0.11464348 0.1254692 1.8709204 1.7066061
          1.7999192 1.7114435 1.5046102 1.8973553 1.5725778 1.8078531
          1.8802623 1.9197503 1.8373615 1.7942182 1.5416907 1.442324
          1.9125001 1.8465444 0.7225298 1.5532875 0.7876577 1.9288911
          1.8330529 1.7484883 1.723864 1.7739308 1.8232074 1.51732
          1.8419975 1.818548 1.8919938 1.8836076 1.8981371 1.7759373
          1.6702231 1.5527283 1.9022236 1.7887347 1.6004177 0.74104077
          1.7370578 0.73998076 1.7880628 1.6419327 1.7511101 1.8768108
          1.8783205 1.8387997 1.9024999 1.7242509 1.1764733 1.0136601
          1.0588067 1.1607289 1.1135447 1.1256261 1.229239 1.2995179
          1.198893 1.1474719 1.1704713 1.0239872 1.0086931 1.0661287
          1.3438501 0.964365 0.98167884 1.201438 0.60905546 0.60538244
          1.1351705 0.6038985 0.60213625 1.1110945 1.0764737 1.0424567
          1.1488125 1.0725842 1.2265599 1.3064848 1.064129 1.4183847
          1.5500171 1.4987382 1.6037519 1.7484002 1.6952635 1.543816
          1.7762218 1.5708622 1.4924682 1.4560677 1.4069643 1.4993898
          1.4565098 1.5198311 1.5757793 1.5607483 1.5318333 1.617086
          1.6324174 1.3488954 1.5763346 1.5654856 1.7989556 0.74408644
          1.5360967 0.76136494 1.4020411 1.7871844 1.5508991 0.77862275
          1.3810319 0.7883125 0.24469535 0.30693188 0.3216917 0.35065398
          0.22138852 0.5853385 0.28876632 0.22828595 0.2241835 0.21731089
          0.25795034 0.22115323 0.23485556 0.2623511 0.2543852 0.315312
          0.30121204 0.2104183 0.31737772 0.22805773 0.29225272 0.20944725
          0.28055653 0.21284963 0.23205715 0.29817033 0.28963447 0.31934568
          0.2157439 0.29431397 1.9847997 2.1305058 2.227271 1.9675766
          2.0415437 2.1260407 2.0082603 1.8756797 1.926817 2.2430618
          2.0936038 0.68313664 1.8889763 2.233515 2.3110993 0.75653946
          2.296385 1.8914728 1.8008021 2.2477822 2.1763592 2.3076103
          1.9367055 1.9704216 2.4247417 2.2381115 2.085946 2.3026903
          2.3698306 2.292113 2.2775452 2.383997 2.3869038 2.2419643
          0.7000082 2.120001 1.9807907 0.70147294 2.4291794 2.4443336
          2.2384706 2.130499 2.2737656 2.2322621 2.3119526 2.325905
          2.18991 2.011169 1.867773 1.9266915 2.1745362 1.9623413
          1.1826539 1.7045894 1.7973063 1.1405815 1.1562775 1.6567228
          1.2015122 1.8785797 1.1785578 1.142188 1.1757331 1.2461369
          1.2208059 1.7521342 1.7816471 1.2787565 1.2646486 1.1578526
          0.61708564 0.61371464 1.1911836 0.6088552 0.60607255 1.6710598
          1.5557226 1.5642908 1.1871928 1.136845 1.158444 1.5385902
          1.6446601 1.7809267 0.5573663 0.24020231 0.5181049 0.5591378
          0.6361174 0.5489925 0.23696332 0.24276367 0.24046066 0.2431827
          0.56583524 0.49259374 0.5665669 0.48587567 0.5920192 0.25422123
          0.23582773 0.25529402 0.24951307 0.23918304 0.52875024 0.49634606
          0.43197104 0.57623124 0.5297617 0.47552705 0.50235814 0.6098141
          0.64017296 0.64214224 0.57302964 0.4840001 0.57250315 0.5972786
          0.24613725 0.25440708 0.24786405 0.23513457 0.23937339 0.23302098
          0.24604887 0.24512969 0.2543081 0.23857644 0.24992378 0.2450736
          0.25384057 0.2500039 0.24406151 0.2570284 0.25653985 0.30357334
          0.3710359 0.46666604 0.6342351 0.61417705 0.60075605 0.253606
          0.26008457 0.2526455 0.25080612 0.23568794 0.4394334 0.35316494
          0.34701857 0.2639385 0.2622699 0.35259926 0.58016086 0.26701093
          0.4101194 0.28549552 0.25097203 0.22010311 0.26946416 0.29138273
          0.37571383 0.46060345 0.26415277 0.2609241 0.22612686 0.24234225
          0.28480488 0.3569865 0.32750845 0.38134983 0.32372445 0.32721943
          0.32429418 0.3587384 0.2824154 0.25647044 0.3273397 0.2734057
          0.4031046 0.28903666 0.2793382 0.28597623 0.26636884 0.23868124
          0.3140791 0.28800255 0.30020848 0.40895432 0.2682895 0.46848595
          0.3699913 0.30109444 0.38791135 0.6081089 0.26033783 0.38420692
          0.32062137 0.22015084 0.2230889 0.30346745 0.29245794 0.31335464
          0.2509475 0.25321707 0.37551355 0.25968477 0.25531548 0.29651266
          0.3172606 0.28192264 0.2614088 0.4299748 0.3001254 0.37441257
          0.23075734 0.40985757 0.29342258 0.27324244 0.25069514 0.26734248
          0.22591431 0.22909845 0.30863506 0.2665416 0.39531106 0.40356725
          0.37427002 0.35377365 0.34541604 0.33555895 0.36853534 0.23145926
          0.2969272 0.30521172 0.28114036 0.2620684 0.2491458 0.25342348
          0.30368528 0.3014502 0.3567828 0.3652147 0.49184275 0.28072965
          0.58434963 0.21227449 0.33659124 0.43223366 0.29339048 0.28457916
          0.43288246 0.37473744 0.26399645 0.34885585 0.22554912 0.2225993
          0.22785226 0.25090808 0.26742694 0.29716903 0.28093982 0.29057372
          0.24328706 0.2347364 0.32291454 0.37141326 0.32987764 0.3316376
          0.37488887 0.261734 0.29239735 0.32365084 0.2274451 0.261825
          0.31029105 0.2971609 0.27424043 0.28742245 0.27606428 0.26251128
          0.31511167 0.2691493 0.29304475 0.40186444 0.30362776 0.35861802
          0.34574077 0.3532043 0.2880125 0.438511 0.2966513 0.27690083
          0.26448727 0.2635656 0.28884906 0.26220787 0.2951498 0.3262587
          0.3793412 0.31825194 0.3736783 0.28721815 0.3688844 0.2844131
          0.36855242 0.24060445 0.26479048 0.25760618 0.31721053 0.30920374
          0.28227925 0.31892154 0.3129138 0.32909635 0.38046524 0.3288874
          0.32564375 0.34937748 0.22981268 0.40692237 0.4002831 0.3649245
          0.2688699 0.44947973 0.30200404 0.3879398 0.32810417 0.49047643
          0.38802117 0.23067029 0.23258485 0.2183145 0.2947372 0.2643866
          0.30638865 0.28366023 0.2469826 0.2431229 0.25363836 0.3099757
          0.30127433 0.2997216 0.23363146 0.2363116 0.24288318 0.24673192
          0.30492952 0.34913987 0.26292673 0.22596115 0.23695695 0.3190303
          0.28454143 0.33174956 0.32153562 0.32302213 0.2977199 0.37194687
          0.31392688 0.23731373 0.23842908 0.31253895 0.3187817 0.31599095
          0.31449497 0.31186402 0.31468174 0.29057166 0.26966307 0.27320027
          0.41006216 0.43992278 0.25986084 0.29351604 0.3435415 0.2598443
          0.2788856 0.35988817 0.31288528 0.24453476 0.22916725 0.23678921
          0.31025916 0.26519623 0.26587906 0.26589468 0.33249816 0.41450465
          0.31837526 0.29997927 0.27327242 0.26991767 0.23460701 0.26243362
          0.30159354 0.29154715 0.25700283 0.2547126 0.25194892 0.2570017
          0.25226074 0.25264853 0.24432862 0.30697253 0.31096715 0.31727123
          0.3281748 0.49006152 0.29943928 0.5524874 0.26345882 0.20974773
          0.20952739 0.28756928 0.2701329 0.33192402 0.437222 0.29100606
          0.33704033 0.30950123 0.2915187 0.32297957 0.39121032 0.20947896
          0.23220748 0.23214054 0.23227236 0.30420014 0.23738107 0.29684094
          0.28567672 0.28640357 0.29865852 0.25143814 0.3448512 0.49600443
          0.2743463 0.31536743 0.30983824 0.41140696 0.35851052 0.30780193
          0.35239282 0.22076322 0.22639573 0.31961906 0.22250572 0.25879037
          0.31395146 0.29334807 0.2898392 0.2917766 0.2590328 0.26634142
          0.2655647 0.26798746 0.3505238 0.3986355 0.35114232 0.29490668
          0.34239253 0.3231828 0.32553428 0.37047368 0.2889749 0.38668874
          0.3389925 0.26527 0.23742367 0.27957392 0.3014166 0.26124427
          0.37165695 0.36434036 0.287358 0.260752 0.22557609 0.26099697
          0.24584769 0.31235775 0.31406885 0.2872918 0.27312705 0.3188092
          0.30860466 0.3137934 0.28690308 0.28160024 0.40630168 0.42744747
          0.4661664 0.30530727 0.38504696 0.38306323 0.2912358 0.38640454
          0.538623 0.27253518 0.21437225 0.29469812 0.2782268 0.28761393
          0.296327 0.3986951 0.38214457 0.29615927 0.3089963 0.22837374
          0.23297389 0.23308252 0.2828801 0.26467034 0.3307742 0.29862177
          0.35751837 0.2657577 0.24066618 0.24702285 0.3126523 0.3579114
          0.36208907 0.2794384 0.28824806 0.2871777 0.25218767 0.25236353
          0.31096908 0.3039681 0.38788623 0.38730416 0.27848402 0.3639808
          0.48243776 0.34442094 0.31619325 0.26732925 0.41430858 0.3456965
          0.38810977 0.2756556 0.27013922 0.27441332 0.2528836 0.21894453
          0.2315833 0.23766236 0.23465426 0.22470266 0.23117812 0.27798334
          0.27515265 0.27859187 0.26626253 0.3030312 0.31629843 0.29919782
          0.24868661 0.2285047 0.2889553 0.33650506 0.31995168 0.22668797
          0.2359013 0.23583525 0.2135448 0.21320675 0.2191044 0.31509188
          0.2808084 0.28169048 0.26665485 0.2675249 0.38183933 0.41389427
          0.30585453 0.36794996 0.2868381 0.3361853 0.2817095 0.33075285
          0.32060942 0.35709143 0.3599624 0.371542 0.27101943 0.29764625
          0.2910766 0.21904308 0.21189831 0.26372674 0.3079129 0.2595223
          0.36574158 0.3575483 0.324082 0.28641424 0.25435778 0.23629093
          0.2618078 0.2554177 0.25750875 0.22080301 0.25104034 0.24040161
          0.31567976 0.3186472 0.3210465 0.2652724 0.26916054 0.26510757
          0.3118237 0.3136874 0.3111797 0.3146501 0.31606477 0.31923905
          0.27987644 0.2838601 0.32376054 0.4075254 0.3047965 0.4781322
          0.43170074 0.44327396 0.2683342 0.30696765 0.37222603 0.29481402
          0.3080724 0.37563917 0.3498749 0.25220117 0.24842882 0.25648227
          0.25794944 0.44526184 0.40309182 0.30502495 0.3213054 0.33241615
          0.38623813 0.3717373 0.2701114 0.23002957 0.23359446 0.23308086
          0.23010857 0.2593005 0.23528811 0.2359005 0.28220746 0.2798823
          0.29650697 0.28216884 0.2829521 0.27965787 0.4629018 0.39807606
          0.30703127 0.35714096 0.29109004 0.26776206 0.28647894 0.27704144
          0.278428 0.26495183 0.2956943 0.35969022 0.31571653 0.28984386
          0.38742954 0.35919848 0.36794946 0.3788305 0.35962108 0.36003798
          0.29900655 0.2481518 0.24253784 0.3115833 0.22942255 0.23288208
          0.24251772 0.2518434 0.29832837 0.26824272 0.31814456 0.46867645
          0.36958537 0.3018418 0.29410702 0.2832059 0.289641 0.2845865
          0.31799686 0.3687735 0.33637008 0.3447124 0.32436258 0.32328713
          0.36485156 0.34155884 0.2973687 0.30161306 0.29562324 0.32902652
          0.23370285 0.23814149 0.3035757 0.29401293 0.31538695 0.25970072
          0.25440946 0.36185524 0.25066763 0.24462585 0.2542299 0.25869125
          0.25060555 0.2516857 0.25121477 0.2589104 0.25433362 0.29732978
          0.3056944 0.30262384 0.298904 0.29726768 0.29669005 0.30367666
          0.2706036 0.30992904 0.31182122 0.31157544 0.31078303 0.3164934
          0.31505293 0.30947685 0.29725665 0.29095694 0.2961314 0.3046018
          0.30772606 0.29380918 0.34287688 0.21842958 0.22665128 0.5345218
          0.3772561 0.3057151 0.37738383 0.41988638 0.31103733 0.35625392
          0.29693767 0.29198587 0.5473976 0.37833297 0.2602434 0.2631873
          0.2459416 0.24884088 0.2288342 0.22032472 0.21194126 0.22058226
          0.20813048 0.2227273 0.28979978 0.2917457 0.27348834 0.26957121
          0.26589194 0.2662068 0.5124345 0.48371634 0.29587033 0.33466944
          0.3000143 0.3672784 0.31980485 0.28307667 0.2730339 0.28262448
          0.31478202 0.3247532 0.32280266 0.28790885 0.32893047 0.266172
          0.37888142 0.28515175 0.30668107 0.31773475 0.29641342 0.29363194
          0.2978702 0.38377702 0.3784779 0.38268957 0.39463273 0.26766902
          0.28076097 0.39261052 0.3391119 0.2692931 0.265032 0.27782023
          0.2972685 0.28225708 0.28402627 0.28578255 0.2141037 0.217473
          0.22748914 0.22197253 0.26782772 0.2504893 0.2521836 0.25726223
          0.23831531 0.21297814 0.23676848 0.23008098 0.2280058 0.23194595
          0.23314996 0.22959746 0.2313529 0.24546069 0.2629757 0.25381547
          0.32653442 0.24448219 0.24534036 0.24167767 0.2468322 0.22660786
          0.2223896 0.24383284 0.21660465 0.22795425 0.24050367 0.23060389
          0.29490536 0.2815045 0.28353542 0.2788618 0.27355796 0.2722171
          0.27693433 0.27226385 0.27574113 0.26685834 0.265369 0.31084582
          0.28782243 0.2786883 0.2789485 0.28022704 0.28784156 0.2920478
          0.29500422 0.28657997 0.30542016 0.29062006 0.2833892 0.23235443
          0.25004202 0.23642501 0.42515296 0.3837152 0.29437566 0.2938974
          0.27855363 0.3072301 0.30160388 0.31344044 0.37695926 0.46057433
          0.43640676 0.3700249 0.4724433 0.25809035 0.48182014 0.3655055
          0.35934484 0.35563543 0.35473996 0.35866347 0.28485176 0.30583704
          0.3267638 0.30751368 0.297995 0.2947495 0.3247866 0.3726596
          0.34113348 0.34731862 0.322095 0.33604035 0.38101476 0.35500333
          0.2616356 0.25554565 0.32128388 0.28243116 0.21615824 0.22680259
          0.22040083 0.21977551 0.23984475 0.22197069 0.22427037 0.3114781
          0.34505364 0.3179838 0.30831617 0.25507483 0.21748638 0.23431115
          0.22140151 0.22065482 0.22380964 0.22607358 0.21134189 0.2120303
          0.23577625 0.23281492 0.2513148 0.25672597 0.25480866 0.24622293
          0.25973943 0.3134014 0.31636325 0.311186 0.29097155 0.28973323
          0.291333 0.2882261 0.29433545 0.2936179 0.29269496 0.2950093
          0.2837447 0.28326806 0.29251847 0.27827278 0.27090317 0.27392256
          0.27269715 0.2785551 0.27982044 0.27209744 0.27236387 0.26725173
          0.26477724 0.26776016 0.2677864 0.258077 0.26177537 0.30735978
          0.3146782 0.26997572 0.30187872 0.40800902 0.40334135 0.47744817
          0.4839251 0.35404778 0.30881107 0.30873647 0.3882412 0.37981462
          0.3615525 0.35234737 0.3363986 0.3421632 0.35326093 0.3709874
          0.32173708 0.36858797 0.27816373 0.2812951 0.35133997 0.29689896
          0.288944 0.2933139 0.32599518 0.3359933 0.3763962 0.30555537
          0.3053787 0.35281235 0.3102317 0.35909855 0.3582734 0.33424756
          0.38113964 0.38538915 0.3016269 0.30424044 0.3214731 0.32802692
          0.27514848 0.31831223 0.33162445 0.26926327 0.36748886 0.26965764
          0.26558796 0.26554868 0.2629342 0.26488975 0.26450866 0.25896367
          0.2471339 0.26039878 0.26013464 0.27389422 0.21015315 0.2519411
          0.27770495 0.36246866 0.26341745 0.31086156 0.3239892 0.32511014
          0.3159904 0.31351167 0.34153637 0.35085836 0.37037525 0.3193881
          0.31740475 0.34108 0.35587126 0.26697996 0.26419732 0.26459718
          0.25051764 0.25892955 0.26408735 0.26376256 0.35920054 0.35974312
          0.36081243 0.37186152 0.30973545 0.37808427 0.38433397 0.3111448
          0.32362902 0.29299906 0.37966642 0.31439498 0.27132478 0.26562926
          0.26451406 0.23417637 0.21609077 0.23579186 0.21613994 0.2360216
          0.2362973 0.26593247 0.26500773 0.25396913 0.25974527 0.2419128
          0.24326774 0.24748783 0.24880366 0.24927762 0.24204114 0.31697506
          0.24998567 0.26027435 0.2603256 0.21298368 0.22192082 0.22348782
          0.26139715 0.254455 0.31858054 0.32245672 0.30266687 0.31527323
          0.2804507 0.27861583 0.3103855 0.31240934 0.30700457 0.31050012
          0.31895125 0.3120636 0.28440008 0.29543474 0.27804056 0.2874656
          0.27750763 0.27884176 0.26182914 0.26717547 0.26991534 0.3170271
          0.3104984 0.31082386 0.31324807 0.31455413 0.31712613 0.3139752
          0.31497973 0.31436175 0.30790102 0.31437698 0.31438428 0.3186974
          0.3164273 0.3176381 0.35007584 0.32323724 0.29309645 0.26050016
          0.2722515 0.31576148 0.35263535 0.387873 0.38942114 0.33806416
          0.2552831 0.2785667 0.39182884 0.21833783 0.21981104 0.26769122
          0.4271602 0.33507827 0.39379182 0.40747687 0.2712545 0.3816252
          0.45291868 0.40265536 0.410724 0.31308892 0.41926238 0.43827912
          0.35361892 0.45435238 0.3621346 0.27647337 0.47529125 0.5899808
          0.57606685 0.39989564 0.327204 0.39538124 0.29282072 0.3657281
          0.278456 0.26669776 0.2743756 0.33714214 0.39300722 0.40808797
          0.30092266 0.30414498 0.38370633 0.3584867 0.57896835 0.4621519
          0.36548132 0.4167133 0.5001617 0.356616 0.3830599 0.319362
          0.25769207 0.26566106 0.31060067 0.28237063 0.25509384 0.3011152
          0.38421944 0.34293696 0.28184235 0.24564782 0.27832088 0.5231936
          0.31774172 0.35540134 0.22576115 0.21306792 0.28367803 0.28778622
          0.33402702 0.32355368 0.30528703 0.29701248 0.21623592 0.3026901
          0.2386321 0.31380624 0.28465703 0.31280336 0.31489408 0.3157566
          0.29255837 0.3134822 0.59266657 0.6251798 0.2582331 0.27569133
          0.38225004 0.24731547 0.2464126 0.44513136 0.27254996 0.27552426
          0.36236796 0.24091169 0.2970109 0.26534778 0.3176984 0.3674662
          0.26580125 0.26905107 0.23216514 0.36810738 0.29775432 0.28096044
          0.3253746 0.25098976 0.25216228 0.31671396 0.31830832 0.30752742
          0.32636142 0.40205598 0.5828335 0.5386367 0.33153296 0.3058703
          0.25618443 0.24870318 0.22511056 0.29095548 0.2611869 0.26634327
          0.2672659 0.41075405 0.33322576 0.28548893 0.30761638 0.28473842
          0.38386345 0.2333059 0.24542212 0.26089627 0.230595 0.2470248
          0.24602714 0.24197431 0.24208763 0.22421364 0.29615375 0.29688215
          0.28506312 0.28363875 0.27638406 0.27887788 0.28534207 0.29859784
          0.27636752 0.2758567 0.24097888 0.23428862 0.23455295 0.26766035
          0.29135278 0.40370962 0.37422904 0.2668479 0.4269306 0.36959708
          0.29120126 0.3382522 0.3782141 0.25588813 0.26202536 0.22128657
          0.31949875 0.31794676 0.24757455 0.21677904 0.22444737 0.2239621
          0.22852334 0.22970642 0.24166808 0.24189124 0.25999108 0.3131606
          0.28353098 0.27483207 0.26677006 0.26563546 0.4064754 0.5056744
          0.32706833 0.30660608 0.33117753 0.3439041 0.37940276 0.2659569
          0.23993039 0.2213827 0.26298165 0.26247922 0.2884449 0.26024592
          0.31204957 0.32647642 0.32650927 0.2932642 0.26090187 0.2303085
          0.25906456 0.2512241 0.314537 0.28137723 0.2796226 0.29734963
          0.3132701 0.28236035 0.28118828 0.28067255 0.28927812 0.27601936
          0.26837605 0.3130212 0.3153278 0.31746498 0.31619468 0.26820934
          0.36134622 0.25883824 0.25305447 0.21374545 0.21726333 0.21658453
          0.4193144 0.36051536 0.27240828 0.4111293 0.4702093 0.3556495
          0.29870346 0.2963184 0.46441874 0.26986268 0.29093668 0.28813827
          0.29007846 0.29628137 0.25197265 0.2649342 0.38159618 0.29531705
          0.31096563 0.24462652 0.24374326 0.23059095 0.23144886 0.2307874
          0.29010656 0.2790381 0.26583102 0.26668084 0.51291627 0.28711158
          0.28685832 0.37030795 0.28949624 0.23935047 0.23981768 0.31238806
          0.36019877 0.3619663 0.28819618 0.34003282 0.25176936 0.3020221
          0.25113165 0.29842967 0.30799672 0.32035843 0.31710947 0.67943597
          0.20993397 0.49143827 0.32883814 0.28859997 0.35840726 0.37953383
          0.27495065 0.22499767 0.23449473 0.23546149 0.26869437 0.259021
          0.24010612 0.22495414 0.231279 0.27343297 0.28826272 0.28674054
          0.3199352 0.28427806 0.32630575 0.23558086 0.3464827 0.6178919
          0.28015321 0.281757 0.29067427 0.38844702 0.34925348 0.27699673
          0.35587278 0.29648557 0.32764733 0.31913853 0.23471893 0.3110243
          0.23025954 0.21205188 0.31051394 0.28259626 0.26912215 0.3481201
          0.2995099 0.3463109 0.27984613 0.37603685 0.32645893 0.2951263
          0.28216013 0.3353541 0.24662216 0.25183538 0.21650629 0.21524613
          0.22257245 0.21424328 0.2927868 0.29250398 0.31053004 0.25568956
          0.36479807 0.30085838 0.394389 0.31831932 0.3382087 0.2595929
          0.3727439 0.2638655 0.254492 0.23906063 0.24042311 0.25383735
          0.3132044 0.31235644 0.24291809 0.25740287 0.21936816 0.21654804
          0.21546073 0.3150217 0.3154652 0.28909856 0.31744808 0.32051057
          0.3146608 0.2877636 0.30936214 0.3153774 0.33899006 0.3433026
          0.3864688 0.32882714 0.22866549 0.2301167 0.6308878 0.37249234
          0.3777301 0.26934835 0.2914224 0.34960037 0.2541588 0.25972718
          0.2772431 0.28302383 0.4624372 0.34991553 0.4105405 0.3778354
          0.37801248 0.27374995 0.23028865 0.21724598 0.21854071 0.2327133
          0.2285787 0.23099402 0.24853013 0.29549658 0.28940243 0.29512432
          0.28289306 0.28181213 0.24504662 0.24470049 0.2455722 0.26620045
          0.29573345 0.2702159 0.27150863 0.373778 0.24990636 0.24953873
          0.26716384 0.31723142 0.3145007 0.29345298 0.23474693 0.23397565
          0.2435268 0.24089321 0.24713683 0.2507925 0.25465938 0.30713975
          0.30360502 0.29706395 0.28857997 0.28603286 0.26596963 0.26469734
          0.2649445 0.38370433 0.28345016 0.28601348 0.2993609 0.3913577
          0.35377026 0.3307761 0.38067526 0.30043143 0.29236585 0.36304477
          0.34735316 0.26412264 0.23232894 0.23168851 0.25947836 0.25691023
          0.29592583 0.2955525 0.3032867 0.29312176 0.29177734 0.3437302
          0.3379949 0.37339336 0.27807957 0.28091148 0.28164232 0.27783507
          0.25393692 0.2550915 0.26150477 0.25814307 0.2336529 0.23200169
          0.25783792 0.25829938 0.30115607 0.3180518 0.31527954 0.31178325
          0.3107018 0.29935253 0.29553097 0.31547606 0.30836108 0.3069999
          0.3076814 0.2938055 0.3029593 0.31153902 0.3127761 0.394095
          0.34599644 0.44169918 0.34893882 0.34155518 0.3213446 0.23714498
          0.23621526 0.56686616 0.3484728 0.33335847 0.29639694 0.28084928
          0.48039055 0.5670585 0.36401024 0.44397476 0.46979797 0.36239758
          0.3230026 0.2953235 0.31208506 0.2257218 0.25042063 0.2168584