<?xml version="1.0"?>
<VTKFile type="PolyData" version="0.1" byte_order="LittleEndian" header_type="UInt32" compressor="vtkZLibDataCompressor">
  <PolyData>
    <Piece NumberOfPoints="12552" NumberOfVerts="0" NumberOfLines="0" NumberOfStrips="0" NumberOfPolys="4184">
      <PointData>
      </PointData>
      <CellData>
        <DataArray type="Float32" Name="mean [kgf/m²]" format="ascii" RangeMin="-34.4974365234375" RangeMax="19.27529525756836">
          -10.177945 -11.2042885 -16.5014 -5.381707 -11.982743 -13.607484
          -1.1421878 7.447433 7.623998 -10.458139 -11.815016 -11.936351
          -12.049587 -13.316794 -7.106096 -9.43403 -4.467745 -5.352122
          -10.048826 -10.90848 -7.837933 -13.092579 -13.033828 -11.062242
          -1.0685421 11.294684 -10.553252 -10.123311 -9.682587 -10.087581
          -12.895553 -12.587071 -13.295758 -10.045802 -8.334418 -6.9924183
          -11.433031 -9.561115 -10.881817 -11.824281 -13.699899 -8.179299
          -0.3465257 4.301737 -13.292988 -9.869213 -10.059587 -9.923629
          -11.008879 -11.628426 -13.68913 -13.184107 -13.359733 -13.302393
          -11.607322 -11.789433 -11.463178 -7.826461 -9.800661 -7.9172044
          -6.89776 -10.450582 -11.717801 -7.2648997 -11.275403 -7.516314
          -17.307749 -11.381487 -14.714048 -15.191407 -10.908535 -11.708763
          -12.905227 -13.255447 -12.371697 -13.339575 -11.989725 -9.136188
          -9.90614 -8.333761 -9.283291 -8.597131 8.199394 -12.997767
          -10.568351 -9.924556 -10.0138855 -9.772213 -10.184975 -9.573926
          -10.111173 -12.181799 -12.113286 -12.750499 -12.922261 -13.626688
          -13.081125 -13.662553 -13.664649 -13.038792 -13.604264 -13.312262
          -11.610544 -12.69636 -8.365433 -11.1091795 0.58419013 0.2949704
          -13.010813 -11.466425 -13.742042 -13.313688 -13.429755 -13.347068
          -11.535281 -11.22917 -10.91924 -10.436695 -7.261862 -9.284362
          -11.108918 -20.68055 -14.797594 -12.397111 -21.829506 -21.588951
          -14.191704 -13.179228 -11.071597 -11.757742 -12.712133 -13.051774
          -13.864947 -13.455009 -13.377129 -11.849085 -9.194173 -11.972557
          -9.102168 -4.035831 1.1565633 -0.4610111 -0.6115253 8.381295
          -9.670111 -9.608129 -9.606975 -13.677601 -12.311046 -12.923399
          -12.471808 -13.392223 -13.389738 -13.597709 -11.065976 -11.40413
          -11.364496 -9.154684 -11.363445 -10.987124 -10.507276 -11.100431
          -10.237476 -11.220476 -24.774033 -13.07257 -12.774484 -15.600844
          -15.074647 -11.020775 -11.837648 -11.7009115 -11.862336 -11.800148
          -13.646984 -13.528889 -13.668346 -13.613097 -9.27528 -0.5913056
          2.0979984 -0.40523297 -4.4802227 2.4673536 -11.004899 -12.884485
          -7.351973 -14.008012 -11.334401 -12.578699 -13.849015 -13.291739
          -13.31768 -13.3004055 -13.364543 -11.525422 -12.094356 -10.860063
          -10.695139 -11.680888 -11.169202 -9.446542 -7.781761 -7.345176
          -11.155633 -11.062301 -11.185482 -9.367132 -7.436099 -7.4324794
          -7.51628 -11.110774 -10.863471 -10.741333 -20.797441 -17.04627
          -14.196273 -11.834708 -12.147881 -12.642838 -13.8494215 -22.08767
          -17.269361 -15.213778 -12.613447 -17.169329 -15.440185 -11.012933
          -9.722568 -10.310687 -9.768912 -11.733899 -10.121211 -10.093125
          -10.723244 -11.819521 -11.80898 -11.784163 -11.848384 -11.795854
          -11.86396 -11.694759 -13.2845335 -13.995135 -14.715544 -14.837347
          -12.245368 -11.9444 -13.570852 -13.283097 -10.420833 -9.115931
          -11.802244 -12.07422 -12.133037 -11.107375 -8.197925 -7.7752037
          -11.337153 -7.583008 -8.886594 0.2057081 -6.4751496 2.1951103
          -0.5954556 -0.15259147 -2.7333329 -10.045928 -5.003457 -3.5107234
          6.3297 -14.597152 -10.571525 -11.105888 -9.903786 -9.789911
          -9.446402 -13.69937 -10.773779 -11.824315 -12.751011 -12.843363
          -13.190456 -13.002459 -12.657759 -13.043816 -13.203094 -13.22161
          -13.299653 -13.482138 -13.19925 -12.685083 -13.345337 -13.650079
          -13.839744 -13.765769 -13.641388 -12.449644 -13.582697 -13.743549
          -13.476344 -11.312183 -11.8789215 -11.950433 -12.644365 -12.447451
          -12.518337 -12.541562 -7.656996 -14.966024 -13.552098 1.7737527
          -4.185177 0.2891565 -32.199978 -13.033928 -13.392656 -13.047311
          -11.675083 -12.0236 -14.424806 -11.7591095 -12.964314 -13.210956
          -13.196571 -13.482732 -13.286358 -13.1074295 -10.435006 -10.614871
          -11.958247 1.2683318 -1.6171931 0.47322825 0.8283164 -4.7956886
          9.13603 -13.73343 -9.650056 -13.357687 -12.717825 -12.737004
          -12.4683695 -13.263455 -13.435203 -13.718984 -13.815125 -13.7759075
          -12.713003 -12.896403 -11.956628 -13.451723 -13.600437 -11.065994
          -11.172956 -12.385721 -12.64826 -9.656518 -11.5673685 -11.241516
          -13.031006 -15.304917 -11.708938 -13.199178 -13.111502 -13.739357
          -13.785149 -13.579519 -13.627526 -13.491269 -13.610547 -13.535698
          2.548641 -0.22999778 -1.7655528 3.229118 -12.566958 -12.597963
          -13.096184 -13.3618145 -13.360036 -13.266723 -13.510464 -13.570025
          -13.441705 -13.327339 -13.225274 -12.868616 -12.931169 -13.337343
          -13.190654 -11.821328 -12.349701 -12.713879 -11.097 -10.512127
          -10.544893 -11.374613 -11.618679 -11.721911 -6.9604096 -7.267788
          -7.526076 -8.761333 -6.845663 -11.337582 -10.892645 -11.12402
          -11.223858 -10.366433 -9.003399 -9.346107 -19.662758 -21.280981
          -11.247006 -12.124803 -15.272877 -13.307768 -13.110117 -11.965877
          -11.705587 -11.762616 -11.616517 -12.526296 -12.406349 -14.591024
          -13.3004875 -13.542025 -13.666854 -14.436966 -13.312374 -12.16969
          -11.964585 -12.045789 -12.19838 -13.493386 -13.464728 -13.335336
          -12.2549715 -9.390495 -11.8905525 -12.139485 -11.926662 -9.593616
          -8.006504 -9.471789 -10.127894 -7.868778 -10.403273 -12.766796
          -7.705515 -0.362406 -0.63918954 -2.9774032 -1.5062903 -1.9613234
          -5.5117507 -11.951151 -2.5386257 6.8659983 0.24255677 -0.18358271
          -2.981864 -3.9226584 -12.123185 -11.595078 -16.17977 -12.400267
          -9.813828 -9.921591 -13.751541 -11.638331 -12.1528635 -12.446514
          -13.041173 -12.992569 -12.767892 -12.810033 -12.894865 -13.235733
          -13.468222 -13.33239 -13.240413 -13.22772 -13.311112 -13.250566
          -13.499747 -13.694224 -13.716358 -13.581802 -13.704685 -13.690642
          -13.727702 -13.83184 -12.641459 -12.591334 -12.826761 -12.430211
          -12.002972 -12.647095 -13.349447 -11.627093 -12.071089 -12.331402
          -12.57862 -12.422331 -7.9255137 -15.520892 -16.406502 -16.601046
          -12.669484 -12.858878 -13.223499 -13.146755 -13.866743 -13.726381
          -8.16799 0.84758395 0.18218376 -33.927986 -16.853004 -12.981427
          -12.075207 -13.664187 -13.559329 -13.41507 -13.311349 -13.328589
          -13.504332 -13.449596 -13.3418665 -13.361386 -13.163687 -12.900126
          -13.044867 -13.288955 -13.140566 -13.085037 -11.2857685 -12.2562
          -11.971668 -11.461963 -11.010565 -11.141026 -11.0647 -10.911814
          -10.696153 -11.13994 -10.4406185 -11.4948225 -9.404826 -9.014825
          -7.9003534 -10.606691 -10.618842 -7.537584 -10.080709 -14.970931
          -11.619159 -12.233533 -12.701745 -12.186165 -13.938646 -14.410305
          -13.456492 -13.524393 -11.708052 -11.739546 -11.796226 -11.794348
          -12.386776 -12.692926 -13.008726 -13.078248 -13.182114 -13.128598
          -13.733975 -13.542048 -12.823854 -11.454234 -11.557466 -12.541934
          -13.550091 -13.416167 -12.8586035 -13.397053 -13.489014 -13.12471
          -12.087355 -10.91016 -12.10632 -9.47178 -7.456624 -9.640271
          -12.159237 -11.204742 -12.066992 -6.791675 -2.6211967 -2.4378774
          2.737923 2.814042 3.016075 -0.8155218 -1.1494815 -0.9683256
          -3.9809093 -5.065477 -6.107597 -5.8490396 -9.46246 9.008469
          -0.6556118 -3.8972077 -3.7131202 -11.45481 -13.558903 -16.51473
          -10.158746 -13.405446 -12.402203 -12.497329 -12.274751 -12.768152
          -13.045714 -12.966597 -12.536838 -12.779084 -12.697624 -13.264997
          -13.542535 -13.1805935 -13.240513 -13.221307 -13.450904 -13.604403
          -13.6860485 -13.698166 -13.806248 -13.751775 -13.858729 -13.850307
          -13.765765 -13.847982 -12.616598 -12.707871 -12.696622 -12.814177
          -12.885435 -12.055665 -11.894438 -12.312011 -12.197702 -13.443903
          -13.249215 -12.997488 -11.464509 -11.798543 -11.233829 -12.067602
          -11.164098 -11.718649 -12.448927 -12.481142 -11.914518 -12.655612
          -12.606589 -8.606008 -11.3244295 -11.245929 -11.498428 -11.427593
          -11.311374 -11.482521 -10.865442 -11.09627 -10.57556 -10.653816
          -10.063404 -10.33176 -9.816831 -11.135753 -9.877761 -10.863233
          -24.927517 -16.150396 -25.89654 -24.475954 -23.483494 -11.7538595
          -12.380624 -13.235463 -12.743039 -12.802686 -13.1626 -15.992178
          -16.252607 -13.957179 -12.881854 -13.365751 -14.974445 -11.328672
          -12.073087 -11.855217 -11.763623 -11.800371 -11.710147 -11.74558
          -13.38584 -13.11401 -13.315966 -12.155415 -13.538347 -14.409128
          -13.327779 -13.512122 -13.883874 -13.647045 -13.631354 -13.492771
          -13.7759695 -13.266279 -13.611427 -13.769787 -13.550934 -13.683524
          -13.728701 -13.529567 -13.613254 -9.693651 -10.708252 -8.653986
          -10.89092 -2.744157 -4.915405 -0.57495993 2.6427228 3.030738
          -0.37280923 0.7497169 -0.23946658 -2.2281523 -5.152588 1.425082
          1.3792356 1.469389 -2.580858 -1.551184 -10.613327 -11.735164
          -8.5387 -10.713965 -9.677427 -14.172418 -14.607449 -10.1279335
          -15.538862 -15.690467 -10.957311 -12.62496 -12.460409 -12.786623
          -12.99491 -13.2481365 -13.187593 -13.125959 -13.343285 -13.209731
          -13.141498 -13.456011 -13.443545 -13.448728 -13.480227 -13.473318
          -13.400546 -13.623174 -13.490553 -13.224568 -13.219477 -13.152116
          -13.45926 -13.57802 -13.547054 -13.336917 -13.332426 -12.5534
          -12.699362 -12.6439905 -12.655191 -12.7383175 -12.873829 -12.849972
          -12.907978 -12.983696 -12.714585 -12.611837 -12.986661 -12.455318
          -13.074309 -13.058993 -13.260336 -13.261725 -11.466745 -11.77466
          -11.615406 -11.430923 -12.59062 -12.035722 -12.201052 -12.228342
          -12.1686 -12.546447 -12.5388775 -12.519551 -10.595292 -8.478502
          -10.629987 -10.904443 -10.7963705 -11.4689865 -11.397678 -8.234771
          -11.656052 -11.639484 -10.509279 -6.4811153 -6.6072817 -7.401
          -7.4151077 -9.211553 -7.9006696 -9.952754 -9.672056 -9.628739
          -8.653925 -11.059402 -11.085867 -10.402447 -8.0785675 -8.482591
          -9.736652 -11.180543 -10.783775 -11.134142 -7.4957385 -6.8782954
          -9.821485 -8.905908 -9.401957 -19.29366 -19.129772 -16.069027
          -18.486559 -17.846914 -20.331348 -17.525948 -16.915453 -16.394827
          -16.82242 -20.405064 -16.435421 -15.715683 -14.41695 -11.488772
          -11.409746 -11.22305 -11.557686 -11.306115 -11.324893 -11.4552
          -12.390408 -11.959876 -11.566285 -13.233469 -13.64014 -13.372945
          -15.926098 -20.99579 -20.136452 -20.186577 -17.92128 -18.393679
          -15.965276 -18.412773 -16.488466 -15.841862 -15.668562 -17.306509
          -15.320549 -14.250975 -14.85776 -13.572942 -10.222432 -10.349127
          -10.222381 -10.426382 -10.51843 -11.736443 -11.850049 -11.740266
          -11.745844 -11.763959 -11.831419 -11.868414 -11.760217 -11.809293
          -11.743731 -11.608157 -11.729146 -21.252048 -14.587832 -19.325024
          -13.994014 -12.624443 -13.2428465 -16.547243 -14.269017 -15.368239
          -13.484036 -13.81277 -13.303491 -13.375754 -13.26567 -13.579813
          -13.429186 -13.535234 -14.817024 -13.559393 -15.044555 -14.618921
          -13.118603 -12.904164 -13.102912 -12.442297 -11.988847 -9.994445
          -10.815601 -12.36616 -11.825688 -12.266727 -12.140888 -12.156497
          -11.960686 -11.832668 -15.467738 -14.764443 -14.330202 -11.76537
          -11.875633 -12.205189 -13.129353 -13.39872 -13.159461 -12.566874
          -14.082669 -13.521016 -13.620975 -13.500593 -13.347218 -13.468653
          -13.351823 -13.320087 -13.372304 -13.442669 -13.475486 -13.442088
          -13.545902 -13.410238 -13.499692 -13.552433 -13.491267 -13.341909
          -13.00756 -11.504707 -12.025472 -7.7467356 -10.9933405 -7.197033
          -12.514908 -10.614377 -10.6814375 -11.78984 -11.789211 -11.843761
          -11.925604 -12.171136 -12.166358 -11.976245 -12.204032 -12.131369
          -11.969053 -10.760652 -10.4243555 -9.441237 -6.9321594 -6.701763
          -9.010577 -6.4746194 -6.316151 -11.876568 -10.84462 -11.233873
          -9.480693 -6.2171984 -6.194885 -10.9661665 -6.66922 -9.118008
          -16.139797 -14.428623 -11.671437 -11.002687 -13.853078 -12.870478
          -4.8481793 -7.1578712 -10.255805 -6.9623704 -5.834105 -9.588589
          -0.3613121 -6.633937 -1.3153476 -2.029356 -3.0786781 -2.2286139
          -2.951537 -1.4521815 1.9786968 1.7465559 1.3265496 3.037675
          -2.8343368 -3.9410238 -4.891895 -3.2899208 -4.012675 -2.713496
          -4.785532 -0.8831543 -4.610723 -4.015849 -2.5559282 -0.79044056
          -0.6365996 -3.2028196 -10.527101 -6.1497617 -11.195965 -10.252078
          -5.6740065 -2.6944191 -4.577768 -4.4565897 -5.307555 -18.648811
          -8.092337 -13.213358 -3.0333707 -1.9762576 5.749019 2.049525
          1.1657013 0.65297914 -0.8002691 -1.0043406 -2.015262 -0.9507617
          -2.7158687 -4.2064238 -9.685266 -13.82709 -14.203687 -9.968634
          -10.640914 -10.224004 -9.589574 -9.737493 -10.562854 -17.10397
          -13.680958 -15.162658 -17.330397 -9.839393 -9.213118 -10.22837
          -11.102504 -12.176501 -9.699448 -13.904769 -13.697287 -13.26161
          -13.066976 -13.598427 -11.543117 -12.110177 -11.124612 -12.2048235
          -12.45337 -12.241652 -12.476838 -11.4266405 -12.2157 -12.482078
          -12.696647 -12.972634 -13.086617 -12.994093 -13.232562 -13.126293
          -12.572925 -12.732461 -12.745609 -12.879906 -13.046816 -13.067995
          -12.967464 -13.134522 -13.243098 -13.110889 -13.195446 -13.498335
          -13.4972315 -13.78333 -13.61231 -13.312761 -13.450458 -13.447258
          -13.878325 -13.673804 -13.263694 -13.553268 -12.650887 -12.802413
          -13.172087 -13.06713 -13.028152 -13.432426 -13.330554 -13.189807
          -13.213601 -13.192842 -13.256771 -13.287111 -13.462797 -13.4428
          -13.435608 -13.589485 -13.593365 -13.721251 -13.757947 -13.926571
          -13.555561 -13.66015 -13.758373 -13.552725 -13.482675 -13.649021
          -13.785383 -13.625775 -13.663634 -13.910556 -13.837893 -13.75348
          -13.662575 -13.8868475 -13.495772 -13.482478 -12.560322 -12.689214
          -12.8635645 -12.889423 -12.88384 -12.59765 -12.818536 -12.767371
          -13.062995 -13.052278 -13.012098 -12.884225 -12.933906 -13.126564
          -13.203564 -13.182642 -13.258569 -12.303393 -12.657254 -12.379392
          -12.624222 -11.885347 -11.67295 -11.627227 -12.136541 -11.66337
          -11.273153 -11.593061 -12.501626 -12.562295 -11.812664 -11.819088
          -12.345954 -11.93794 -12.2416115 -13.502153 -13.362811 -13.43239
          -13.477858 -13.462941 -13.567436 -13.592588 -13.2711735 -13.182641
          -13.352162 -12.7716 -12.213824 -12.302686 -13.012591 -12.586442
          -12.6374445 -13.645363 -13.616598 -13.213845 -12.6055975 -12.869981
          -12.984793 -13.007164 -11.415753 -11.461055 -11.097755 -11.55777
          -11.426389 -11.405418 -11.410034 -11.347003 -12.2337885 -12.008367
          -12.663118 -12.581793 -12.283933 -12.285106 -12.536446 -12.555006
          -12.582905 -12.632891 -12.596362 -12.604745 -12.657703 -7.202987
          -15.218913 -12.87814 -13.306085 -13.420552 -13.087903 -11.259399
          -18.76429 -13.128386 -13.15099 -12.980983 -7.354032 0.8665297
          0.6306292 -3.6784806 9.353414 7.4839993 -10.201431 -12.590053
          -13.202085 -12.723001 -12.697703 -12.50347 -13.345301 -13.458139
          -13.266728 -13.761148 -13.873457 -12.810208 -11.995981 -13.516689
          -10.958948 -12.639386 -9.753947 -9.845403 -11.262705 -12.184776
          -13.456423 -13.597527 -4.81107 4.226851 3.8855727 -5.0609894
          -13.937846 -10.854897 -12.445424 -13.292789 -13.268552 -13.433258
          -13.513337 -13.424944 -13.414961 -13.388532 -13.26036 -12.695796
          -12.946608 -13.236063 -11.24676 -11.3608885 -13.29781 -11.947464
          -12.616123 -13.146584 -13.2682705 -13.412234 -13.441512 -12.148126
          -12.168125 -12.080357 -12.070046 -13.477547 -13.456707 -11.47412
          -10.789825 -6.5692377 -9.837158 -6.597984 -1.5780061 7.694229
          6.8564095 -11.879727 -11.762064 -12.939373 -12.85666 -12.056973
          -12.313146 -11.729357 -12.866583 -12.7325115 -12.717957 -13.009551
          -12.99067 -12.735762 -13.51452 -13.497782 -13.466026 -13.03911
          -13.087746 -13.296533 -13.696086 -13.762379 -13.5125065 -13.664757
          -13.704287 -13.750102 -13.653204 -13.734246 -12.701516 -12.610105
          -13.073947 -13.056921 -12.390227 -12.1557045 -13.574562 -13.609885
          -12.699557 -13.160093 -13.05317 -12.5615225 -8.113686 -7.9515386
          -23.573357 -12.809922 -13.484968 -10.382722 11.928492 0.5004717
          0.26108223 -34.497437 -24.285242 -13.835802 -14.3473015 -13.34906
          -13.422829 -13.304858 -13.569381 -13.432135 -13.37028 -13.239351
          -13.300716 -13.3717165 -12.842578 -13.236186 -13.083707 -11.063054
          -12.004228 -11.509656 -11.509574 -11.260857 -10.720375 -19.899122
          -15.721287 -15.732804 -13.688226 -13.828108 -14.771392 -14.818279
          -11.32359 -12.593126 -12.927694 -12.699878 -13.020096 -13.109998
          -13.197395 -13.478385 -14.026853 -14.130289 -12.944222 -11.094053
          -13.398863 -6.048462 -4.0511312 -3.1299546 -0.3536294 -1.6432211
          -0.2895175 8.80904 8.604617 -0.44665435 -4.010542 -10.304819
          -10.302769 -10.136254 -13.257196 -12.064272 -12.426384 -11.97005
          -13.021236 -12.969221 -12.835833 -12.6043 -12.538516 -12.587335
          -13.383187 -13.510147 -13.177648 -13.346466 -13.407761 -13.771062
          -13.723282 -13.873941 -13.829975 -12.722138 -12.940598 -12.881926
          -11.855796 -11.776313 -12.373753 -13.408457 -12.94113 -13.542695
          -13.654315 -8.7846575 -8.823996 -11.504409 -10.343836 -9.889544
          -21.81338 -15.865632 -15.171771 -13.39771 -14.752263 -13.363273
          -12.919025 -13.336178 -14.100385 -13.765254 -11.133858 -8.193707
          1.5343777 1.8259947 -7.9615183 2.0316195 -2.3506217 -10.448647
          -11.080605 -14.304547 -17.945505 -12.418258 -13.030947 -13.09787
          -13.517746 -13.197122 -13.266066 -13.3107 -13.424135 -13.239025
          -13.333152 -13.138273 -13.28837 -13.525044 -13.474919 -13.553381
          -13.223117 -13.261888 -13.399559 -13.244676 -12.6839905 -12.756286
          -12.855922 -12.726338 -12.373887 -13.224167 -13.210348 -13.30288
          -13.384904 -13.377237 -11.773462 -12.567693 -12.61421 -12.642632
          -10.7857065 -10.870917 -7.640327 -11.608837 -16.871252 -16.48168
          -17.716663 -19.81762 -18.765257 -15.296319 -15.981053 -13.6561985
          -13.542509 -20.997751 -17.613928 -15.104479 -13.93496 -13.347657
          -13.126075 -11.54418 -12.446619 -16.807423 -13.202988 -12.861879
          -13.393817 -14.207805 -13.835163 -16.297483 -13.261423 -13.477917
          -14.388821 -14.165366 -15.079574 -14.256802 -14.63798 -14.26297
          -15.476752 -13.441533 -13.000947 -12.380654 -10.6972065 -12.2033
          -12.171876 -12.010365 -11.893308 -14.724776 -13.138943 -11.826871
          -11.806566 -11.925015 -12.6288595 -13.529522 -12.470771 -10.945174
          -9.24107 -14.248187 -15.487858 -11.928052 -13.721699 -13.910435
          -12.429092 -9.150028 -7.6366506 -8.614037 -5.887137 -6.100062
          -6.7473326 -2.6551442 1.7509108 -5.7050285 -3.8019333 -9.4705515
          -1.6293008 -6.1163707 5.588588 5.9241014 1.4483069 -0.16830695
          -0.996869 -2.105791 -2.5162604 -4.102657 -10.58668 -10.681619
          -11.768099 -11.404933 -11.322507 -16.742 -15.590312 -16.646376
          -17.890951 -9.534437 -11.889175 -11.993437 -13.520066 -13.988701
          -10.875861 -12.529097 -8.715836 -12.018256 -11.726341 -11.736968
          -12.458496 -12.51431 -12.488871 -11.949258 -12.536494 -12.396485
          -12.636323 -13.211438 -13.14045 -13.005288 -13.144969 -12.954105
          -12.619935 -12.785668 -12.574733 -13.041054 -13.131805 -12.943994
          -13.141786 -13.100628 -13.119377 -13.377533 -13.2119255 -13.250944
          -13.701459 -13.140277 -13.252641 -13.47456 -13.345233 -13.441664
          -13.559846 -13.163321 -13.272432 -13.134905 -12.683127 -12.819457
          -13.038891 -13.0019045 -13.318877 -13.39687 -13.335564 -13.1964445
          -13.146254 -13.372105 -13.365705 -13.503197 -13.496666 -13.647925
          -13.676794 -13.5830765 -13.81894 -13.710612 -13.852579 -13.738772
          -13.687496 -13.548696 -13.661381 -13.655527 -13.786686 -13.724261
          -13.794687 -13.941313 -13.696779 -13.646938 -13.648819 -13.482586
          -13.675302 -12.507907 -12.6391535 -12.85792 -12.739036 -12.616474
          -12.788296 -13.038727 -12.972796 -13.265916 -12.610062 -12.465731
          -12.366262 -12.619487 -11.676645 -12.458022 -11.880517 -12.127556
          -13.532323 -13.532776 -13.459655 -13.619036 -13.731053 -13.217609
          -12.483559 -12.610462 -13.560002 -13.597526 -12.959495 -13.138132
          -12.478714 -12.569335 -12.178431 -12.321258 -12.299009 -12.537843
          -7.2745857 -7.402108 -20.272047 -23.150343 -12.841367 -12.992675
          -13.587539 -13.753381 -7.6950088 -4.6687913 0.012394834 0.47053406
          -34.327805 -33.850853 -12.31187 -12.618179 -13.43754 -13.451938
          -13.324318 -13.368857 -13.407582 -13.097091 -13.092614 -13.1116705
          -12.935005 -11.475074 -11.327539 -11.389391 -16.21672 -14.069884
          -12.872199 -13.077463 -12.914171 -13.189794 -13.235993 -13.225146
          -13.015304 -13.136561 -13.526334 -12.344671 -16.046707 -11.798363
          -2.626291 -0.46252018 -3.7947981 9.538124 7.9101634 9.157865
          -9.89713 -9.775585 -13.873193 -13.018164 -13.206019 -12.783299
          -12.795987 -12.524608 -12.810099 -12.751561 -12.73862 -12.515543
          -12.64777 -12.298772 -13.367815 -13.345849 -13.288927 -13.434047
          -13.397584 -13.397171 -13.332207 -13.827606 -13.742128 -13.761849
          -13.811917 -13.865839 -13.839829 -13.7774725 -13.7778425 -12.750745
          -12.73783 -12.923761 -12.867371 -12.87481 -11.776107 -11.790644
          -12.074278 -12.092224 -13.318189 -13.441193 -13.321464 -13.579694
          -13.59061 -12.542217 -12.631227 -12.600923 -9.479187 -9.393454
          -9.712964 -20.492079 -15.649136 -22.415558 -22.750443 -24.372105
          -15.873061 -14.186074 -13.149126 -12.165282 -12.21148 -12.252341
          -13.429131 -13.598713 -13.79996 -13.633543 -7.4559736 -6.6752753
          -8.939592 -11.280321 -9.497082 -6.771893 -0.6482319 3.3067665
          3.2346663 2.9433043 -11.462075 -15.966888 -12.156294 -13.39215
          -13.320752 -13.479009 -13.301248 -13.361505 -13.234122 -13.26763
          -13.199824 -13.407779 -13.332546 -13.50264 -13.569707 -13.579308
          -13.435671 -13.384445 -13.4950695 -13.4177065 -13.38858 -13.404706
          -13.34001 -13.439352 -13.340204 -13.233661 -13.271683 -12.703776
          -12.845572 -12.906341 -12.742069 -12.741476 -12.832191 -12.87979
          -13.001396 -13.265566 -13.271873 -13.447573 -13.198906 -13.218922
          -11.5391 -11.626082 -12.6503525 -12.546798 -11.110113 -10.966375
          -10.928749 -11.089065 -17.79537 -17.445774 -18.726349 -18.779255
          -17.671011 -14.223703 -15.394943 -13.646767 -13.677018 -12.6277
          -12.612013 -11.690256 -11.799005 -12.402786 -12.522303 -13.14247
          -12.463494 -12.352081 -12.83443 -14.977341 -13.429424 -17.152298
          -13.382022 -13.407448 -13.290156 -13.338301 -13.435733 -13.908655
          -14.169986 -13.644466 -13.471362 -13.900781 -14.479191 -15.063871
          -11.695873 -12.1730795 -12.185161 -11.995843 -13.932438 -12.041725
          -11.863204 -12.311684 -13.735687 -13.614997 -13.513801 -13.756741
          -13.456687 -13.375923 -11.792999 -12.018027 -17.396303 -12.658631
          -11.50346 -12.113929 -11.725724 -8.34175 -8.869209 -6.9822097
          -0.9830496 -2.3688364 -13.023051 7.32463 6.8377595 6.961657
          0.47107038 0.2514366 -0.91884935 -0.80152684 -2.9337618 -3.4489799
          -2.5876536 -3.3672788 -3.0658398 -11.494461 -12.182519 -12.149368
          -12.276473 -10.68939 -12.974221 -10.848896 -15.891728 -17.86919
          -12.271387 -13.343561 -11.797676 -10.584123 -13.443891 -13.366087
          -12.2984495 -11.8089285 -11.293509 -12.051447 -12.288569 -12.060055
          -12.1235075 -12.299548 -12.815342 -12.2150955 -12.92688 -12.833623
          -13.037836 -12.985651 -12.982175 -12.655487 -12.854572 -12.706996
          -12.822396 -12.932519 -12.692056 -12.9599905 -12.828498 -12.93941
          -12.978305 -13.531703 -13.103172 -13.239282 -13.546876 -13.490142
          -13.316955 -13.455639 -13.360844 -13.247712 -12.954738 -12.881344
          -13.278128 -13.036574 -13.245837 -13.245663 -13.303858 -13.274271
          -13.142099 -13.238574 -13.289156 -13.429604 -13.419539 -13.639319
          -13.480534 -13.650885 -13.664504 -13.657521 -13.769189 -13.659203
          -13.603977 -13.634419 -13.569488 -13.6670685 -13.646459 -13.777435
          -13.656361 -13.7512045 -13.748067 -13.820616 -13.762168 -13.556284
          -13.724354 -13.807632 -13.662327 -13.849507 -12.67303 -12.622645
          -12.685298 -12.778157 -12.64371 -12.780133 -13.106405 -13.068757
          -13.062737 -12.523891 -12.361333 -12.44765 -12.419228 -11.5118065
          -11.50599 -11.625716 -11.724299 -12.092673 -12.148311 -12.111087
          -12.380481 -13.410591 -13.649035 -13.545758 -12.90945 -12.818596
          -12.520673 -13.078707 -13.420682 -12.917324 -13.48974 -13.492739
          -11.699001 -12.671884 -7.8691573 -7.850047 -7.7976575 -19.919727
          -22.906216 -20.148815 -23.444832 -23.400513 -15.610822 -17.276506
          -16.761059 -16.599018 -12.492128 -12.480989 -12.5285635 -12.599799
          -13.502274 -13.64719 -13.46197 -12.954887 -9.47064 -12.200272
          -13.889173 -11.376325 13.543633 1.4993355 6.5342784 -4.044054
          0.5634368 0.18136138 0.36443132 0.019513628 -32.547016 -21.596785
          -21.514893 -11.420846 -14.708111 -13.222899 -13.6735115 -13.77257
          -13.59153 -13.136935 -13.437292 -13.352273 -13.38847 -13.337757
          -13.419984 -13.426532 -13.307471 -13.362787 -13.495674 -13.568339
          -13.504094 -13.456258 -13.419618 -13.490604 -13.328694 -13.3559675
          -13.223318 -13.277896 -13.36318 -13.347326 -13.236822 -13.16627
          -13.25438 -12.804331 -12.834254 -13.027361 -12.839747 -13.064306
          -13.087453 -13.323166 -13.274428 -13.095227 -13.284363 -13.019998
          -13.100639 -13.074607 -13.07533 -11.241671 -11.197782 -12.10427
          -11.643225 -11.905255 -12.332811 -12.156696 -11.470461 -11.593946
          -11.549294 -11.255109 -11.188128 -11.383159 -11.133873 -11.533963
          -8.453043 -10.601443 -10.101685 -10.506412 -10.633891 -10.729822
          -19.620945 -18.948246 -20.033928 -18.628975 -17.775818 -15.749137
          -15.652457 -15.251405 -14.427843 -14.0033045 -14.570197 -13.713911
          -14.758575 -14.504121 -12.243418 -12.505637 -12.4998255 -12.718352
          -12.77882 -12.808136 -12.857529 -13.018564 -13.2576685 -12.976647
          -13.070346 -13.145078 -13.096184 -13.327159 -13.162406 -13.201794
          -13.131842 -13.182247 -13.766483 -13.4550705 -13.974533 -13.392377
          -13.284528 -13.884642 -14.52166 -14.491525 -14.750997 -12.981699
          -12.785105 -12.864818 -11.91797 -12.072231 -12.633064 -12.680216
          -12.461418 -12.45167 -12.471779 -12.479448 -12.961677 -12.980409
          -15.239189 -16.014061 -12.095352 -7.83853 -7.8091893 -3.8315055
          -2.122486 -3.3466854 -3.1080108 -1.4827125 -2.1585436 0.5978759
          -1.1789056 -3.3078098 -4.526929 -10.18311 -14.225382 7.898011
          7.787754 7.685492 7.9374323 -0.46897838 0.24377622 -0.2610536
          -3.73054 -3.5356743 -4.2755156 -3.0772078 -3.0274498 -10.411838
          -9.957761 -10.645603 -10.747667 -13.140596 -14.941455 -17.63919
          -10.769825 -13.518243 -13.088905 -11.818454 -12.134777 -12.058543
          -12.37573 -12.683337 -12.420356 -12.1764 -12.374732 -12.217046
          -12.738676 -12.933581 -12.778579 -13.095202 -13.040212 -13.084523
          -12.942522 -12.856939 -12.883265 -12.448798 -12.5729885 -12.542416
          -12.775477 -12.709098 -12.634894 -12.6498785 -12.646667 -12.537921
          -13.668105 -13.262008 -13.413046 -13.553668 -13.510516 -13.408812
          -13.191579 -13.18753 -13.196263 -13.019673 -13.224226 -13.160938
          -13.34919 -13.38364 -13.418001 -13.438102 -13.414109 -13.306132
          -13.562767 -13.717613 -13.666774 -13.741516 -13.649115 -13.844896
          -13.762918 -13.831299 -13.714075 -13.849355 -13.759404 -13.791151
          -13.837562 -13.726156 -13.796428 -13.802039 -13.819456 -13.770225
          -13.856426 -13.838722 -13.851057 -13.817268 -12.543125 -12.697062
          -12.696298 -12.721222 -12.725207 -12.902851 -12.980838 -12.904658
          -12.933729 -12.8543625 -12.853451 -12.96656 -11.900034 -11.929231
          -12.144349 -12.044888 -11.709735 -11.683591 -12.059252 -11.897573