<?xml version="1.0"?>
<VTKFile type="PolyData" version="0.1" byte_order="LittleEndian" header_type="UInt32" compressor="vtkZLibDataCompressor">
  <PolyData>
    <Piece NumberOfPoints="12552" NumberOfVerts="0" NumberOfLines="0" NumberOfStrips="0" NumberOfPolys="4184">
      <PointData>
      </PointData>
      <CellData>
        <DataArray type="Float32" Name="mean [kgf/m²]" format="ascii" RangeMin="-28.03284454345703" RangeMax="5.901340007781982">
          -11.838648 -13.982041 -16.423277 -6.5222373 -15.427471 -14.294008
          -5.2549253 -3.887054 -3.706924 -12.33075 -12.330232 -12.410244
          -12.469711 -12.316426 -8.347696 -11.661882 -5.3554177 -6.124076
          -12.520312 -13.568749 -9.970143 -11.984277 -15.280042 -14.932148
          -10.764823 -0.36951655 -12.53987 -12.316311 -12.344283 -12.613381
          -13.436288 -12.175616 -12.225257 -10.064654 -9.439799 -7.29297
          -14.470408 -12.1490965 -13.389125 -15.410232 -13.372555 -11.001426
          0.42421785 5.134537 -13.427825 -12.426857 -12.290347 -12.393255
          -11.842742 -12.173109 -12.803386 -13.409158 -12.53473 -12.365712
          -11.628241 -11.823321 -11.662136 -9.651416 -12.949645 -9.259021
          -8.148196 -13.532457 -14.88212 -8.872579 -14.279193 -9.4041605
          -16.97738 -14.036465 -16.95755 -17.22362 -14.518607 -14.829616
          -11.873856 -14.762569 -15.424959 -14.674778 -15.61306 -14.237783
          -14.769158 -11.008096 -11.705536 -11.466805 4.3284187 -13.26688
          -12.256848 -12.434293 -12.276853 -12.569076 -12.385872 -12.351464
          -12.417195 -12.330694 -11.880143 -12.709552 -12.208354 -12.59867
          -12.246231 -12.767489 -13.580081 -12.145626 -12.627373 -13.163887
          -11.548469 -12.182753 -8.6131115 -13.98357 -2.8292956 1.7478371
          -13.800894 -11.699968 -12.33767 -12.2146015 -12.357495 -12.480027
          -12.358799 -14.421454 -14.108002 -12.995639 -9.360599 -11.538387
          -13.914849 -20.97076 -16.961077 -14.91885 -21.21162 -20.955097
          -16.579151 -15.763883 -15.002351 -14.944908 -11.744782 -12.014008
          -12.554992 -14.930909 -15.237465 -15.281088 -14.216208 -15.393134
          -11.89078 -7.296817 -4.786131 0.33407906 -6.217556 1.6644877
          -12.604162 -12.65269 -12.435636 -13.368903 -12.407696 -12.304889
          -11.855463 -12.312978 -12.273225 -12.895313 -11.090232 -11.429499
          -11.323461 -9.177968 -14.349535 -14.088961 -13.207493 -13.9406185
          -13.143672 -13.999646 -20.270947 -16.004839 -15.31353 -14.958783
          -14.875844 -14.568091 -15.182307 -15.209007 -15.502397 -15.510779
          -12.945241 -13.0448 -13.579144 -13.841909 -12.227221 -1.3568728
          -0.000020660937 -0.5710517 -9.046066 3.0353346 -12.138994 -12.47539
          -14.744277 -13.953785 -11.50963 -13.277031 -12.422294 -12.656189
          -12.255194 -12.547587 -12.374753 -11.453554 -12.244155 -10.8999815
          -13.833165 -14.822214 -14.131955 -12.140107 -9.817582 -9.246489
          -14.177113 -14.060608 -14.091419 -11.818612 -9.248397 -8.943761
          -9.210351 -13.834518 -13.518387 -13.358752 -21.760775 -19.330658
          -16.852762 -14.39396 -14.5257 -15.157079 -16.276093 -20.436409
          -16.379929 -15.521645 -14.472212 -21.297308 -18.232725 -14.766579
          -12.708877 -13.430889 -13.131641 -15.314235 -13.525339 -13.325757
          -14.431976 -15.238909 -14.890084 -15.368721 -15.43913 -15.1750965
          -14.5613365 -14.357159 -11.691707 -12.6143265 -12.617465 -13.881348
          -15.415948 -15.0285225 -13.456377 -15.159236 -12.364133 -11.451613
          -15.539344 -15.530066 -15.607268 -14.947946 -12.121399 -11.782682
          -15.184375 -11.664957 -12.920707 -1.2303954 -6.966981 -1.6884643
          -0.058970876 0.53240687 -3.0339808 -11.236427 -8.334993 -7.973039
          5.0961494 -13.950734 -12.849203 -13.31985 -12.5610485 -12.4752
          -12.347549 -13.093216 -11.935039 -12.210519 -12.272224 -12.833457
          -12.987589 -12.535654 -11.976191 -12.377676 -12.2759495 -12.83625
          -12.651797 -12.411639 -12.335388 -12.188855 -12.199866 -12.626171
          -13.187949 -13.588424 -13.938617 -12.122901 -12.5536585 -12.876127
          -13.192628 -11.269938 -11.780524 -11.864031 -12.540741 -12.362915
          -12.156185 -12.242187 -7.9980993 -15.136243 -14.149602 -2.4521945
          -7.2418394 2.5461016 -27.866879 -12.751491 -12.406615 -12.372187
          -12.841964 -14.671709 -15.386535 -15.05832 -11.916704 -12.130496
          -12.001812 -13.439404 -15.162731 -15.231941 -14.593608 -14.8272915
          -15.340716 -5.6325665 -1.489915 -7.8253264 -8.508174 -7.454601
          1.4945319 -13.545463 -12.596411 -13.413119 -12.39371 -12.087412
          -12.26824 -12.19235 -12.331663 -12.766483 -13.108219 -12.904761
          -12.030604 -12.164081 -12.474041 -13.054203 -12.919185 -11.16404
          -11.272216 -12.31696 -12.13013 -9.676534 -14.622516 -14.043687
          -15.635503 -15.021794 -15.427698 -14.4413185 -14.372128 -13.27462
          -13.529091 -13.289198 -14.9931755 -14.613437 -13.642669 -13.607033
          -1.2637509 0.446534 -1.2196022 5.004459 -13.085076 -13.201516
          -13.224393 -12.47732 -12.453816 -12.538944 -12.3561735 -12.3582115
          -12.328081 -12.393551 -12.343256 -12.30733 -12.650072 -12.392739
          -12.235578 -12.05477 -12.291672 -12.610989 -11.241939 -13.615641
          -13.728137 -14.659554 -14.785789 -14.890292 -8.833564 -9.28556
          -9.499417 -10.8972025 -8.5450115 -14.286477 -14.01784 -14.159927
          -14.351216 -13.327862 -11.251614 -11.698 -19.275164 -21.170061
          -13.951483 -14.595513 -15.118589 -14.957735 -15.591057 -15.470962
          -15.075813 -15.280329 -14.720537 -12.045535 -11.652438 -13.538813
          -12.234032 -12.181486 -12.847962 -13.290904 -14.820675 -15.531684
          -15.448812 -15.119832 -14.528181 -12.829456 -14.573903 -14.565537
          -15.121783 -11.250909 -15.564343 -15.59686 -15.620515 -14.353838
          -11.833457 -14.3702 -14.753509 -11.75733 -14.941318 -15.428688
          -9.689445 -0.508562 -3.794885 -1.2821169 -1.4489212 -3.5669343
          -8.829255 -11.606308 -9.173526 4.1440063 1.1366109 1.3214557
          0.011282299 -3.6168294 -13.736203 -12.609473 -13.072442 -13.459465
          -12.335978 -12.439474 -12.7839575 -11.916373 -11.935709 -12.166051
          -12.972665 -12.787098 -12.676292 -12.155087 -12.056487 -12.752749
          -12.427893 -12.473436 -12.266929 -12.140484 -12.227233 -12.171561
          -12.560539 -12.890794 -12.51047 -12.514087 -12.591466 -13.407975
          -13.575226 -13.99014 -12.03332 -12.178468 -12.148412 -12.23014
          -12.615237 -12.843311 -13.358241 -11.595282 -12.072791 -12.120431
          -12.230423 -12.37293 -8.271539 -15.943665 -16.231907 -16.337723
          -15.222833 -14.836529 -14.570081 -14.297339 -14.030068 -14.189015
          -13.114424 -1.3205013 1.3608465 -26.761793 -14.558192 -13.656791
          -13.616808 -12.740148 -12.308192 -12.271523 -12.261245 -12.279099
          -12.385392 -12.424228 -12.409881 -12.449139 -12.397573 -12.326958
          -12.375177 -12.553362 -12.351223 -12.275177 -12.030443 -12.581592
          -12.584613 -12.003569 -14.247763 -14.448943 -14.223774 -14.110484
          -12.972928 -13.859179 -13.052529 -14.217133 -12.143407 -11.521259
          -9.898582 -13.635457 -13.517651 -9.346536 -12.54668 -17.103188
          -14.359122 -14.983907 -15.093484 -14.632318 -15.014901 -16.168291
          -16.106705 -15.941879 -15.059973 -15.027315 -14.884724 -14.798855
          -11.535291 -11.78188 -11.894904 -12.028175 -12.209945 -12.021557
          -12.3663435 -12.238895 -15.574944 -14.730553 -14.89237 -15.382288
          -14.9108515 -14.745536 -15.347913 -15.071801 -15.2508335 -15.162923
          -15.438577 -14.826597 -15.378904 -14.280449 -11.676186 -14.336725
          -15.473866 -15.171936 -15.463761 -14.2979 -9.108651 -1.4254953
          -1.866207 -1.8324995 -1.481837 -0.3119928 -0.8719408 -0.6948016
          -2.127021 -7.490268 -10.539476 -10.345463 -10.748988 3.5264118
          0.14727719 -2.1881123 -1.2352087 -13.704724 -12.67487 -13.892113
          -12.832606 -13.255733 -12.564349 -12.442168 -12.234478 -12.328703
          -12.4004965 -12.282994 -12.102699 -12.1237335 -11.945963 -12.459154
          -12.424191 -12.165747 -12.20938 -12.174393 -12.30789 -12.542294
          -12.648468 -12.728599 -12.844294 -12.977319 -13.1399555 -13.117177
          -13.251425 -13.4287615 -11.954259 -12.03707 -11.99527 -12.107442
          -12.11051 -12.427024 -12.726121 -12.445296 -12.571324 -12.824048
          -12.916864 -13.066088 -11.35538 -12.1000595 -11.221701 -11.972786
          -11.151841 -11.577288 -12.371367 -12.362565 -12.206536 -12.189683
          -12.105002 -8.848093 -14.201626 -14.001886 -14.241234 -14.111412
          -14.384803 -14.582884 -13.8200655 -13.943309 -13.5356 -13.718414
          -12.676094 -13.064661 -12.529736 -13.778886 -12.255771 -13.869177
          -19.9594 -14.854222 -21.708817 -22.419191 -21.69082 -14.951209
          -14.893637 -16.087444 -15.1413765 -15.63959 -15.875173 -15.373325
          -16.049744 -15.275773 -15.051897 -15.415264 -15.343857 -15.164547
          -15.317999 -15.394688 -15.36621 -15.460399 -15.337796 -15.40152
          -14.219476 -15.100073 -14.1067295 -15.495859 -13.964743 -14.307059
          -12.483504 -12.759809 -13.531112 -13.064482 -13.077791 -13.125248
          -14.111275 -14.373265 -13.405268 -13.67669 -13.5281515 -13.686159
          -13.836742 -13.685567 -13.975612 -13.267172 -14.597816 -13.280104
          -13.4943905 -3.912153 -3.6209693 -1.9249651 -1.8113047 -1.0512016
          -0.37413114 0.7448119 -0.36123535 -1.8972436 -7.6113253 2.2814078
          1.9290698 0.45455897 -0.5167663 -1.460958 -12.561805 -12.183059
          -14.127753 -13.863042 -13.7209215 -14.14939 -14.060952 -13.838334
          -12.939117 -13.095876 -12.734245 -12.738143 -13.318861 -13.02257
          -13.012037 -12.894492 -12.535703 -12.648486 -12.308065 -12.5932
          -12.421188 -12.326871 -12.348337 -12.28538 -12.29609 -12.282782
          -12.275768 -12.424494 -12.365672 -12.515781 -12.356234 -12.404887
          -12.446672 -12.524731 -12.527798 -12.430955 -12.436696 -12.104236
          -12.260204 -12.145347 -12.234004 -12.427701 -12.365559 -12.25385
          -12.224409 -12.260161 -12.507852 -12.645499 -12.5954895 -12.830376
          -12.564683 -12.2069845 -12.408775 -12.432773 -11.750752 -12.247266
          -11.63773 -11.412375 -12.553026 -12.392717 -12.371102 -12.303091
          -12.30397 -12.313791 -12.6651745 -12.363779 -10.443225 -10.323095
          -13.645849 -14.184449 -13.943518 -14.656071 -14.589499 -10.566554
          -14.694276 -14.67776 -13.504138 -8.237092 -8.373303 -9.463426
          -9.6021595 -11.790101 -9.988831 -12.751186 -12.227134 -11.971613
          -10.825557 -14.178348 -14.219811 -13.280367 -11.122585 -11.290507
          -12.392387 -14.09851 -13.347403 -13.7979 -9.948846 -8.40658
          -12.222192 -11.0243025 -11.562387 -18.287632 -18.01963 -17.766626
          -22.033934 -21.1741 -20.973553 -22.281393 -19.402946 -20.249014
          -19.70628 -20.927982 -16.293314 -17.412771 -16.550276 -14.087889
          -14.188322 -14.037941 -14.24043 -14.329362 -14.529876 -14.362463
          -14.849418 -14.429362 -14.310805 -16.361073 -17.058075 -16.514408
          -19.222494 -18.704166 -18.12163 -17.644545 -16.434301 -16.379862
          -15.069631 -17.003311 -16.681002 -15.851587 -15.936756 -16.91601
          -15.672727 -14.585153 -15.851637 -16.26663 -13.627169 -13.669668
          -13.266414 -14.032212 -13.926637 -15.271269 -15.010245 -14.991225
          -15.288026 -15.3699255 -15.47321 -15.538321 -15.173893 -15.287149
          -14.992354 -14.630071 -14.455057 -18.229046 -15.131311 -17.624537
          -12.8392315 -11.644214 -11.866151 -15.167531 -12.598697 -14.228021
          -12.041642 -12.340248 -12.037677 -12.39242 -12.263708 -12.392214
          -12.52162 -12.760383 -13.142468 -12.87804 -13.613883 -13.808011
          -15.185431 -15.15724 -14.80577 -15.576944 -15.026815 -14.473216
          -14.81017 -15.659581 -15.05579 -15.435389 -15.364871 -15.664078
          -15.668297 -15.5067 -14.475568 -14.540637 -14.777935 -15.283763
          -15.029997 -14.939345 -15.039992 -14.972261 -14.990151 -14.6474085
          -13.771729 -13.182263 -13.547548 -13.60017 -12.858496 -12.783909
          -12.472626 -12.452183 -12.551403 -13.107748 -13.83967 -13.709163
          -13.330299 -13.951273 -13.776845 -14.057906 -14.369409 -15.029001
          -15.303843 -14.645575 -14.26249 -9.822019 -14.440014 -9.375797
          -15.550558 -14.400756 -14.487338 -15.45144 -15.501459 -15.57965
          -15.559074 -15.568068 -15.502192 -15.592181 -15.600852 -15.549271
          -15.344526 -14.7500725 -14.731333 -14.195217 -10.25115 -9.9129505
          -14.276679 -9.790248 -9.694914 -15.306301 -15.051048 -15.113986
          -14.322194 -9.653183 -9.607537 -15.133679 -9.819385 -12.412494
          -17.138113 -16.89375 -14.957746 -14.600731 -21.676802 -18.518288
          -6.923487 -13.201148 -13.326585 -12.571048 -13.96446 -11.838593
          -2.251357 -7.712216 -2.3080428 -2.5626621 -3.8147364 -2.2900581
          -2.1368523 -3.8535852 -5.2710795 0.63531566 1.4050788 -2.1486416
          -1.1322774 -0.9106684 -1.9231659 -1.679179 -2.80935 -2.2569423
          -3.5451076 -0.50917494 -3.5233352 -4.681816 -4.0364895 -3.6268246
          -0.41524833 -6.526642 -11.439412 -8.839286 -11.791412 -12.170614
          -8.301487 -9.479532 -7.5587926 -7.9231477 -8.787163 -14.782325
          -9.933457 -12.025144 -8.28067 -8.857192 5.245604 1.6044058
          2.7361953 0.44957438 0.48628646 -0.17370637 -0.11142784 -2.1456792
          -2.9688156 -2.5749469 -13.955916 -13.71412 -14.154483 -12.734408
          -13.105302 -12.705399 -12.685649 -12.6738205 -13.030399 -13.980913
          -17.144772 -12.743095 -12.630084 -12.54608 -12.529682 -12.679341
          -13.136271 -13.315622 -12.429602 -13.287559 -12.946114 -12.829137
          -12.982513 -11.657581 -11.90333 -11.92814 -12.353754 -12.202074
          -12.432743 -12.054437 -11.846872 -12.72087 -12.995996 -12.570557
          -13.110853 -13.055618 -12.75513 -12.569204 -12.656549 -12.511822
          -11.922645 -12.042968 -12.0166025 -12.263593 -12.356832 -12.362807
          -12.035617 -12.336409 -12.319795 -12.947108 -12.826201 -12.705917
          -12.728979 -12.68089 -12.490535 -12.385804 -12.403092 -12.345801
          -12.57915 -12.500488 -12.253385 -12.39948 -12.1445 -12.156847
          -12.219743 -12.204603 -12.122615 -12.282213 -12.2080345 -12.146207
          -12.175265 -12.2113905 -12.207881 -12.216737 -12.3119335 -12.571308
          -12.531643 -12.785906 -12.622266 -12.736985 -13.106574 -13.52206
          -12.4313755 -12.458055 -12.66278 -12.354618 -12.325317 -12.569059
          -12.745233 -12.646798 -12.780451 -13.725931 -13.325228 -13.166042
          -13.365966 -14.295003 -13.526847 -14.1301365 -12.045275 -12.0292635
          -12.175964 -12.144507 -12.047924 -12.084614 -12.163726 -12.085998
          -12.137303 -12.163856 -12.06366 -12.094986 -12.197496 -12.234658
          -12.258149 -12.222165 -12.220965 -12.277681 -12.311508 -12.225808
          -12.30092 -12.457309 -12.435955 -12.280918 -13.050355 -12.61388
          -12.611086 -12.522903 -12.349839 -12.588173 -12.805805 -12.583849
          -12.710129 -12.712963 -12.795741 -12.396177 -12.388713 -12.528216
          -12.611302 -12.581672 -12.575749 -12.707022 -12.618339 -12.832493
          -12.934241 -12.910518 -12.706423 -12.802586 -12.973697 -12.918623
          -12.858119 -12.986458 -13.183902 -13.065536 -12.900519 -13.100924
          -13.214273 -13.380252 -11.308058 -11.455871 -11.313383 -11.519219
          -11.3441515 -11.397831 -11.458707 -11.34466 -12.268348 -12.135901
          -12.292481 -12.300998 -12.29385 -12.323927 -12.197647 -12.123323
          -12.157832 -12.157149 -12.186971 -12.2031975 -12.243008 -7.71459
          -15.337072 -14.625678 -12.323618 -12.417507 -12.415305 -12.668724
          -18.42546 -12.125297 -11.963991 -11.85141 -12.9503975 -1.6733584
          -5.7873387 -4.2778535 1.1968157 -0.15400128 -12.570985 -13.354905
          -13.445605 -12.236564 -12.204843 -12.245861 -12.295414 -12.3320875
          -12.233221 -12.936606 -13.088111 -12.047721 -12.427862 -13.02969
          -11.114869 -12.12882 -9.762816 -9.783842 -13.818911 -15.251597
          -14.124361 -14.531915 -2.5252957 4.932024 4.896179 -4.5683227
          -13.96206 -11.854186 -13.324669 -12.431036 -12.501815 -12.575042
          -12.347571 -12.270543 -12.463758 -12.469684 -12.357885 -12.145334
          -12.705327 -12.300662 -11.49964 -11.395334 -14.489251 -15.5468
          -11.9313545 -11.861218 -12.281779 -12.161575 -12.055873 -15.24583
          -15.325679 -15.516791 -15.174919 -12.803416 -13.750796 -14.929326
          -14.625545 -9.0073185 -17.85575 -13.392875 -3.3283179 4.086285
          4.0010657 -13.852932 -12.304637 -12.442478 -12.456678 -11.885681
          -11.818511 -11.54346 -12.822527 -12.659761 -12.843908 -12.29744
          -12.199607 -12.031273 -12.52304 -12.54982 -12.594608 -12.231841
          -12.186714 -12.255045 -12.786045 -12.869493 -12.631578 -12.517432
          -12.5537 -13.526318 -13.677012 -13.685095 -12.00089 -12.028996
          -12.181762 -12.133907 -12.16105 -12.857061 -12.637753 -12.668987
          -12.931061 -13.154567 -13.148406 -11.980543 -8.367672 -8.307874
          -20.064539 -14.99818 -14.122923 -13.422744 5.254314 2.1100757
          2.221923 -28.032845 -20.040855 -12.486713 -12.36485 -12.257198
          -12.370776 -12.202217 -12.407606 -12.372422 -12.340459 -12.349788
          -12.451907 -12.483936 -12.308144 -12.482467 -12.346603 -12.196777
          -12.656148 -12.171817 -12.216804 -13.952615 -13.982439 -20.767803
          -16.90027 -17.586359 -17.161459 -14.895755 -15.138088 -15.264103
          -15.106308 -11.751691 -11.819524 -11.648611 -12.05515 -12.019321
          -12.083196 -12.362461 -12.637827 -12.512992 -15.500634 -14.610932
          -13.5668125 -12.537977 -11.670624 -7.5713043 -7.614511 -5.991368
          -1.3722124 2.842588 2.2083263 0.5952592 -1.471379 -12.610454
          -12.643699 -12.936669 -13.283778 -12.375496 -12.343368 -12.32753
          -12.436441 -12.319224 -12.268071 -11.994929 -11.823766 -11.964908
          -12.259516 -12.457938 -12.173143 -12.245543 -12.280749 -12.692305
          -12.843529 -12.998907 -13.198819 -12.077113 -12.180988 -12.035446
          -12.299656 -12.642129 -12.454179 -12.854168 -13.041615 -12.9177885
          -13.124622 -8.955772 -8.961668 -14.560231 -13.244831 -12.5700035
          -19.094213 -15.391139 -15.006749 -15.650871 -15.421026 -14.339697
          -15.010714 -14.075792 -14.215136 -14.549549 -13.757517 -9.255257
          2.771485 2.6772006 -7.5626936 1.7483258 -1.2941402 -12.510731
          -13.6446495 -13.480214 -13.138482 -12.694276 -12.675072 -12.613503
          -12.755186 -12.62938 -12.724727 -12.230882 -12.392096 -12.48925
          -12.508435 -12.478894 -12.1974125 -12.339913 -12.313277 -12.384447
          -12.443337 -12.451595 -12.374263 -12.337799 -12.218615 -12.298554
          -12.191386 -12.462925 -12.7890215 -12.747432 -12.331303 -12.451129
          -12.405814 -12.347164 -12.303134 -12.389419 -12.389008 -12.325101
          -10.769863 -10.757848 -9.24071 -14.57299 -21.39265 -19.14284
          -20.93718 -19.859884 -18.172256 -17.277565 -16.881397 -16.349558
          -16.17353 -19.357508 -16.58773 -15.23077 -14.532574 -14.755733
          -14.795389 -15.225637 -13.426192 -16.799288 -11.791741 -11.772696
          -11.453391 -12.640959 -12.24253 -14.820936 -12.157778 -12.451525
          -12.471489 -12.80775 -13.130554 -13.395623 -13.718316 -13.763367
          -14.091957 -14.381652 -15.122589 -15.554204 -14.756831 -15.343085
          -15.372759 -15.631302 -15.587285 -14.816629 -14.751811 -15.193883
          -15.10889 -14.995017 -14.688577 -13.492045 -15.460112 -14.667708
          -12.430123 -15.769624 -17.195784 -14.988418 -16.371937 -16.534468
          -20.515688 -16.935453 -15.451981 -16.334576 -9.342974 -9.408644
          -8.291003 -1.8384225 -2.0916517 -7.678076 -4.1070642 -9.914046
          -2.346978 -9.388941 4.862732 4.827765 1.823968 0.46845537
          0.06460803 -0.23023638 -3.4738424 -2.9203093 -12.923952 -13.217286
          -13.440154 -13.474244 -12.85211 -14.007475 -15.438361 -14.633791
          -12.686625 -12.516376 -13.067966 -12.558286 -12.943502 -13.076822
          -11.061327 -12.772402 -11.617022 -12.210511 -12.194911 -12.009792
          -12.238185 -12.082255 -12.160669 -13.017636 -12.770915 -12.70113
          -12.986018 -13.007622 -12.993852 -12.567569 -12.567585 -12.432802
          -11.916925 -12.0390215 -11.810827 -12.375572 -12.451483 -12.300702
          -12.242588 -12.214803 -12.220055 -12.933732 -12.771063 -12.736268
          -12.791637 -12.484598 -12.634465 -12.450797 -12.29155 -12.374275
          -12.436949 -12.356707 -12.44241 -12.199122 -12.192127 -12.20279
          -12.199397 -12.105733 -12.212241 -12.257609 -12.189854 -12.183245
          -12.113724 -12.328323 -12.276034 -12.640584 -12.6319475 -12.584126
          -12.634758 -12.580369 -13.061685 -13.115976 -13.267121 -12.582533
          -12.540025 -12.416814 -12.524162 -12.705589 -12.83725 -13.503083
          -13.659945 -13.936897 -13.289225 -13.269819 -13.856246 -13.724821
          -14.139869 -12.114413 -12.072783 -12.05645 -12.101709 -12.037738
          -12.155863 -12.144509 -12.151246 -12.252744 -12.210542 -12.082852
          -12.319283 -12.391412 -12.6685915 -12.515381 -12.742114 -12.674312
          -12.5023775 -12.498088 -12.592216 -12.695977 -12.824423 -12.752698
          -12.892197 -12.862251 -13.144355 -13.224972 -13.074323 -13.388689
          -12.460498 -12.472546 -12.067447 -12.169463 -12.248562 -12.277437
          -7.7151456 -7.816265 -17.112755 -19.93127 -14.765853 -14.8247795
          -14.369261 -14.122126 -13.387073 -8.042657 1.9300836 2.3664272
          -27.308586 -26.290535 -11.955008 -12.196864 -12.385762 -12.432927
          -12.350153 -12.397321 -12.398368 -12.451923 -12.304903 -12.369567
          -12.267368 -12.643622 -12.653283 -12.659092 -18.167953 -14.821844
          -11.841444 -12.056083 -11.852148 -12.190868 -11.841282 -12.046054
          -11.801094 -12.019891 -12.441871 -14.763594 -16.825336 -16.879005
          -8.536275 -9.0314045 -4.768937 1.5005308 0.84965813 1.2197671
          -12.580703 -12.604083 -13.44041 -13.365504 -13.410418 -12.503618
          -12.34584 -12.303249 -12.222114 -12.09558 -12.113247 -12.323427
          -12.231395 -12.147129 -12.32338 -12.266934 -12.168501 -12.331249
          -12.345344 -12.299371 -12.298388 -12.784353 -12.8488035 -12.973942
          -13.181565 -13.171059 -12.883528 -12.997105 -12.903097 -12.059851
          -12.033707 -12.172046 -12.081935 -12.084589 -12.568931 -12.488654
          -12.544399 -12.371567 -13.033585 -13.099276 -13.04627 -12.953168
          -12.98101 -12.053242 -12.163278 -12.087025 -9.484867 -9.481693
          -9.613184 -17.031466 -14.508969 -19.35032 -19.731485 -21.810467
          -15.767489 -15.477638 -14.507447 -15.379469 -15.266361 -15.065881
          -14.178284 -14.287898 -13.997365 -14.637255 -12.077036 -12.506759
          -13.367153 -14.280776 -9.366844 -4.443629 -0.3830913 4.804389
          4.3896337 3.9130828 -12.729876 -13.039079 -13.095163 -12.525628
          -12.431061 -12.603479 -12.37309 -12.427961 -12.430729 -12.585048
          -12.465363 -12.686969 -12.214953 -12.355568 -12.361622 -12.403743
          -12.270316 -12.2666855 -12.343711 -12.326027 -12.443304 -12.454985
          -12.417564 -12.491331 -12.453886 -12.353175 -12.400217 -12.217589
          -12.30206 -12.302325 -12.166915 -12.7677 -12.700284 -12.798601
          -12.613232 -12.384634 -12.345217 -12.503138 -12.282363 -12.270945
          -11.678017 -11.832896 -12.653721 -12.495436 -11.265499 -11.061435
          -11.0440855 -13.9931555 -17.274527 -16.995142 -21.955156 -20.680922
          -17.415974 -16.649338 -15.371464 -14.523354 -14.607471 -14.861613
          -15.100403 -14.707262 -14.546675 -12.057803 -12.119604 -12.367481
          -11.828278 -11.509176 -11.886931 -14.405432 -11.922561 -15.315211
          -11.903546 -12.227226 -12.291273 -12.224808 -12.175207 -12.840734
          -12.855714 -12.722213 -12.792024 -13.161509 -13.204658 -13.4524975
          -15.058296 -15.604468 -15.544726 -15.4344635 -14.631759 -15.004678
          -15.041521 -14.728264 -13.379762 -13.251372 -13.329672 -13.483479
          -12.712539 -13.537521 -15.081238 -15.003594 -17.76109 -12.515735
          -14.8774605 -16.555092 -16.302322 -13.1376295 -12.660474 -12.144768
          -0.9458997 -5.378289 -11.380505 4.925336 4.373939 3.8068821
          0.83568496 0.5932564 0.27186742 0.58453065 0.003408081 -0.41106066
          -0.07448789 -3.490864 -3.2767355 -13.014216 -13.754475 -13.755504
          -13.851283 -12.379414 -12.481892 -12.315637 -12.840801 -13.2899275
          -13.449756 -13.366603 -12.714577 -12.655144 -12.618242 -12.674374
          -11.727413 -11.9868 -11.492607 -11.904869 -12.118095 -11.80425
          -11.801267 -11.923214 -12.908964 -13.036514 -12.951161 -13.006292
          -12.880524 -12.6218605 -12.694636 -12.717754 -12.663851 -12.564699
          -12.143947 -12.270021 -12.022174 -12.169956 -12.047947 -12.09296
          -12.097877 -12.872728 -12.624554 -12.672936 -12.472929 -12.465235
          -12.401888 -12.541459 -12.501717 -12.503451 -12.226611 -12.133677
          -12.302696 -12.132729 -12.239663 -12.14646 -12.244139 -12.2093525
          -12.129395 -12.163053 -12.233468 -12.307127 -12.520437 -12.677096
          -12.585066 -12.785671 -12.820491 -12.859722 -12.999483 -12.477032
          -12.412835 -12.455009 -12.469536 -12.61194 -12.527566 -12.684011
          -12.579175 -13.333051 -13.447868 -13.669001 -13.534162 -13.400988
          -13.66253 -13.898483 -13.767103 -14.245107 -12.132009 -12.028245
          -11.972822 -12.113374 -12.018434 -12.128771 -12.216701 -12.179174
          -12.117071 -12.3117 -12.258782 -12.165302 -12.225444 -12.609703
          -12.834507 -12.304636 -12.443294 -12.71549 -12.647685 -12.7367325
          -12.696471 -12.462772 -12.708636 -12.571968 -12.882702 -12.863466
          -12.825925 -13.01894 -13.237723 -13.104232 -13.341479 -13.421826
          -11.889488 -12.097298 -8.191007 -8.082278 -8.10466 -16.965239
          -20.02134 -16.981907 -19.128887 -19.499071 -15.757199 -16.796938
          -16.40288 -16.59943 -15.195228 -15.096965 -14.992853 -14.830266
          -14.25963 -14.102916 -14.05312 -16.06123 -13.774527 -15.325479
          -15.740007 -11.157884 5.90134 -0.5728915 1.965289 -7.222066
          1.7377542 1.4104371 1.4061618 1.6583825 -27.757448 -18.48437
          -16.657524 -13.797311 -12.910528 -12.965797 -12.33847 -12.188927
          -12.19423 -12.283997 -12.284178 -12.254725 -12.275411 -12.275503
          -12.387351 -12.329521 -12.282257 -12.318318 -12.3945875 -12.430013
          -12.409243 -12.3832245 -12.40555 -12.437891 -12.362592 -12.392758
          -12.360371 -12.34685 -12.420399 -12.451618 -12.447198 -12.402288
          -12.490789 -12.408588 -12.342681 -12.496737 -12.268131 -12.430098
          -12.438037 -12.600378 -12.547934 -12.327672 -12.46819 -12.323607
          -12.315407 -12.265322 -12.309448 -12.196524 -12.064221 -12.572116
          -12.550195 -12.677068 -12.587778 -12.648157 -11.846959 -11.908393
          -12.093041 -14.037103 -14.015868 -14.24576 -13.963645 -14.561379
          -10.637107 -13.6043215 -12.531438 -13.404206 -13.748924 -13.845628
          -19.891163 -19.029408 -20.764965 -19.8142 -18.563776 -16.34802
          -17.755762 -17.262491 -14.589236 -14.498066 -14.538336 -14.774979
          -14.717298 -14.417856 -11.473122 -11.669258 -11.51446 -11.827232
          -11.766171 -11.810621 -11.763122 -11.802182 -12.230331 -11.937956
          -12.123551 -12.059626 -12.134352 -12.357761 -12.15287 -12.149801
          -12.0027485 -11.954626 -12.425939 -12.321766 -12.412575 -12.20205
          -11.928038 -12.51795 -12.578265 -12.061011 -12.8370285 -15.388848
          -15.431331 -15.525002 -15.016677 -15.024352 -15.471247 -15.492694
          -15.377989 -15.339696 -15.354009 -15.027956 -14.847887 -14.732267
          -15.18971 -16.223026 -15.6784315 -13.2992 -12.479374 -11.652277
          -1.3706696 -1.1173368 -1.4144493 -4.402704 -5.94291 -5.938652
          -0.9545403 -5.441602 -8.023538 -10.426783 -13.113042 3.7120695
          3.1989594 2.7855668 0.8928609 0.24901283 1.3898195 0.6217556
          -2.5704236 -1.605003 -2.0824213 -0.7923979 -1.2424471 -12.493226
          -12.600749 -13.133227 -13.253158 -12.237218 -13.101553 -13.4749
          -12.933699 -13.104837 -13.104488 -12.742089 -12.434805 -12.373826
          -12.478447 -12.526928 -12.316132 -12.241852 -12.320963 -12.087909
          -12.384967 -12.447485 -12.299856 -12.424853 -12.392494 -12.444669
          -12.296734 -12.240994 -12.231303 -12.206569 -12.074775 -12.093067
          -12.141757 -12.046812 -11.951612 -11.950756 -11.9094715 -11.789507
          -12.623301 -12.542761 -12.339574 -12.461491 -12.370781 -12.328239
          -12.175013 -12.1916485 -12.219065 -12.075194 -12.159484 -12.166292
          -12.2409115 -12.281227 -12.286068 -12.314848 -12.258407 -12.190429
          -12.490221 -12.6453 -12.5789995 -12.703697 -12.66318 -12.810989
          -12.846298 -12.839368 -12.755938 -12.917869 -12.909284 -13.028858
          -13.086089 -13.017657 -13.151705 -13.02625 -13.06552 -13.149707
          -13.375431 -13.323634 -13.449757 -13.513547 -11.9837055 -12.024513
          -12.043238 -11.984465 -12.058966 -12.165647 -12.206006 -12.123513
          -12.11016 -12.094128 -12.04246 -12.114778 -12.254163 -12.409021