<?xml version="1.0"?>
<VTKFile type="PolyData" version="0.1" byte_order="LittleEndian" header_type="UInt32" compressor="vtkZLibDataCompressor">
  <PolyData>
    <Piece NumberOfPoints="3771" NumberOfVerts="0" NumberOfLines="0" NumberOfStrips="0" NumberOfPolys="1257">
      <PointData>
      </PointData>
      <CellData>
        <DataArray type="Float32" Name="mean [kgf/m²]" format="ascii" RangeMin="-11.294889450073242" RangeMax="24.36006736755371">
          21.993364 21.322838 21.271238 24.219944 21.099842 5.40331
          22.64608 19.940912 20.327665 0.9656088 3.3658323 21.112488
          6.2573295 22.270472 20.477274 21.043499 21.105682 23.371443
          19.739191 21.21384 16.03301 -4.924989 18.683594 21.23198
          20.008015 21.54608 19.740156 22.45167 19.091553 -0.9543893
          20.704323 21.04743 23.60914 22.37558 21.090319 23.199003
          14.519445 22.760002 21.075994 18.236156 21.680609 21.161955
          23.916077 20.739326 10.135292 19.003786 20.982117 19.205244
          20.69814 21.44293 19.130062 -1.2911575 2.9981978 17.649275
          19.507326 19.24459 21.72087 23.081964 22.774385 10.748246
          22.57333 20.284433 21.811071 20.087488 22.215775 20.943172
          21.769558 22.672132 21.101059 20.53978 23.38266 20.762756
          22.01677 24.164547 23.17487 15.443936 10.120889 -0.014084934
          16.894747 -4.5700493 -9.291501 -10.289796 19.672739 21.981932
          21.590275 20.03517 20.839087 18.890095 19.429962 19.963041
          11.908838 20.335115 20.36494 23.116009 20.926147 23.459087
          22.27347 21.796112 19.199043 18.482958 19.081161 19.007353
          -0.95203614 19.3681 19.419464 19.183435 18.891634 19.191803
          18.91269 22.078985 21.907354 21.909893 21.26689 19.922987
          23.091406 20.513115 14.519358 18.574202 21.642086 22.355877
          21.480759 22.277493 24.079355 23.618368 23.852247 24.360067
          20.500633 9.459741 17.867502 21.671232 21.14587 20.85969
          22.497784 22.14268 21.387905 21.042244 21.255564 19.164915
          21.653807 21.165724 21.545866 20.269278 14.68912 13.90843
          1.5782049 19.572317 19.859709 19.705132 20.742592 20.220284
          19.926037 20.535921 20.771015 18.660772 13.722449 -0.7298806
          8.281176 7.7649055 3.760526 0.21104567 23.059267 7.56137
          21.724716 21.93797 22.04923 20.589876 20.363949 20.737448
          21.110615 21.047253 21.608648 21.849478 21.589195 21.498554
          19.658587 20.166431 21.942863 22.564182 21.24967 21.071358
          18.269276 19.131798 12.81491 0.015423294 20.910841 18.642702
          22.19097 21.448566 20.563343 20.148285 20.227358 20.015049
          18.218424 19.100372 19.229448 0.7766315 -1.1141652 -1.2048469
          18.898766 19.132755 18.51295 18.827307 20.985178 23.03429
          17.573038 23.860813 23.071146 17.928965 17.582947 22.874224
          22.995808 21.69871 20.14743 20.23806 20.78222 20.849703
          22.30291 20.80704 21.875729 21.424675 21.279406 18.645012
          18.32995 19.602997 19.776325 21.727152 21.168116 21.08391
          21.09005 20.790901 20.864439 20.157352 21.980747 19.814697
          20.926802 18.818949 15.809738 17.410421 2.0892453 2.5696776
          19.346687 20.992546 20.565704 21.051027 19.517141 19.769356
          20.801603 20.353905 19.670837 18.401093 21.733297 19.274828
          13.084911 6.6949162 -1.3316414 -1.2194649 -0.622872 3.690405
          18.862545 19.366909 17.380013 19.541494 19.42248 19.219086
          22.017933 22.577795 23.270142 24.194685 12.434554 20.00606
          20.904818 21.924452 22.082527 21.245544 20.30685 19.991238
          19.255327 20.733473 20.338135 20.888958 21.583935 22.153084
          21.948826 20.72315 20.301208 20.929586 20.2747 20.698545
          21.476593 20.92874 19.751816 20.740541 19.476658 22.166832
          19.207296 18.4798 21.831106 21.105549 20.996653 21.269869
          22.66501 22.19148 21.33477 21.325035 18.790428 21.582071
          19.25459 21.029745 18.27926 20.082254 17.986773 21.093294
          21.271927 21.13925 21.250906 21.662054 22.469416 19.308962
          20.30204 19.605053 17.05055 17.78511 20.278397 17.268148
          16.6594 14.381229 11.691974 0.48810855 6.4351244 19.29712
          14.918144 12.268126 -11.294889 -4.124559 -3.9351737 18.062645
          18.397263 17.987488 18.722517 19.297586 18.309895 20.747866
          19.845858 19.180948 18.419432 19.84088 19.366547 19.686783
          19.334692 19.204063 17.015669 19.178658 22.28758 21.180937
          21.222633 18.621944 21.196636 18.088087 20.767286 20.657557
          19.509296 19.424318 20.79738 17.878334 20.091515 18.632196
          19.423111 19.858458 17.102537 19.682102 7.590996 18.596355
          19.188473 21.081667 18.24832 18.689898 18.824509 18.975908
          12.549216 8.825434 6.972061 -0.40354267 0.23257233 -0.97290653
          19.626085 19.309752 19.360918 19.313934 19.290031 19.522053
          19.354776 19.121428 19.218086 19.030752 19.809072 18.943157
          19.095768 18.829397 18.757938 18.846056 18.681662 18.574936
          21.623186 22.404913 22.874891 20.116653 10.759524 16.811516
          20.503897 23.092648 22.821154 23.024412 21.471804 21.41144
          20.91713 20.587732 19.759348 20.235147 20.121382 19.22395
          22.820004 19.755968 21.810497 21.34518 21.953497 20.068457
          16.210968 15.193859 15.77417 19.162296 20.248808 19.847923
          21.360306 20.305 20.373844 22.202991 20.742006 19.904531
          19.28766 15.519499 18.544712 11.300228 20.737274 19.43771
          19.661533 20.535841 20.329391 20.514591 12.500415 12.081166
          4.176449 13.542781 8.569277 21.427254 13.155173 11.966571
          18.798956 14.621274 19.648026 20.164398 21.373745 22.796604
          22.666157 21.92687 18.42501 19.61647 19.52131 19.73469
          19.898708 18.272705 16.29001 12.57243 -2.387113 16.274246
          21.226831 20.984243 19.24267 21.78536 21.355766 21.621914
          20.996386 20.774256 18.32105 20.602201 20.849876 20.87842
          20.349865 20.262094 17.399057 19.760664 20.06524 16.152727
          8.510923 23.647356 18.52975 15.897288 13.031215 19.415283
          19.51896 21.432524 17.454977 15.63755 22.06601 21.553919
          21.071821 21.76796 21.26563 21.600214 20.76779 21.786165
          21.629747 21.487305 20.642454 20.65473 19.92825 20.009214
          19.815393 20.288248 19.988834 19.9621 20.314579 20.683752
          20.637175 21.003231 19.250242 19.23424 21.109983 7.5057487
          4.8448887 6.7768126 3.829682 13.727278 11.096505 12.798474
          22.16436 21.542765 21.82483 21.167156 12.748405 20.520512
          19.01479 19.157589 19.48942 20.020798 21.937624 22.215855
          22.331993 22.687887 22.378977 17.403894 17.22546 18.284765
          19.448803 18.747364 16.81152 13.657416 19.757544 21.955393
          21.930668 21.65326 21.314783 21.471542 21.579666 21.335249
          18.847849 20.908875 20.261776 20.08054 19.98729 19.883781
          19.88854 19.625603 14.442214 10.704965 18.697514 19.39198
          18.508934 18.722761 22.57677 22.394611 21.799414 12.800297
          15.285794 12.640693 14.4759035 18.764576 18.515936 18.02179
          18.54859 10.62498 14.380804 17.82517 18.43045 15.464936
          16.885283 15.355008 19.175184 20.416277 21.658998 21.976133
          21.01932 21.160624 22.205164 21.70853 18.87705 19.351313
          19.609264 19.45799 19.163239 19.878233 20.06013 21.453856
          20.578096 20.39928 21.251776 21.295004 20.793007 20.071732
          20.17872 19.959776 21.71376 21.956272 21.28577 20.83177
          19.787888 20.51352 19.257427 21.23274 20.852417 21.358809
          18.848837 18.796822 13.937859 14.426608 16.69837 1.8625591
          7.161901 10.082455 20.866333 21.155634 20.734158 20.299614
          20.605953 20.971546 20.525768 20.882442 19.714998 19.222317
          19.843128 18.821634 19.492605 19.635708 21.00688 20.760397
          20.877106 20.49879 20.267473 20.50058 20.519295 20.362995
          18.029722 21.732119 19.739721 18.919674 20.993011 18.617239
          22.684086 22.256765 14.42368 12.768651 11.678393 13.623305
          9.133065 3.2666175 8.075557 14.855658 6.3627996 10.740622
          11.062309 16.627539 23.02172 22.508469 19.25417 19.797451
          19.914383 5.478817 18.44041 18.068468 16.797937 21.395336
          19.812555 19.674086 20.406689 21.105156 22.572884 21.015837
          20.890467 17.544277 19.9353 19.242006 18.913557 19.18871
          20.184536 20.946835 19.843513 20.210104 22.281328 19.316225
          22.14803 22.442112 21.26458 21.337965 20.9249 22.682549
          20.692923 22.861235 17.462782 19.679426 21.080486 21.332048
          21.651781 22.287035 18.522135 19.44605 19.26515 19.632103
          18.878126 19.233229 19.483189 19.61747 19.93398 20.624441
          20.090218 19.432253 19.724566 19.604387 14.137543 15.370392
          12.782263 15.44356 22.302235 5.093852 0.86797565 -3.8585985
          -3.6220567 -2.4807837 -1.81541 -4.0600014 -3.543436 -2.672921
          19.50333 17.266624 19.92515 21.101719 21.212563 18.31555
          17.978338 18.51591 18.962612 19.071451 19.381695 19.820286
          19.841434 13.486256 19.052155 22.31527 17.237362 22.215092
          22.40709 22.114529 17.079794 20.835033 16.887297 22.28479
          21.813663 21.997671 21.342218 21.455164 21.706938 21.373816
          21.368969 16.695683 20.289753 16.453796 21.06439 21.08726
          20.724009 16.310669 19.819056 16.248652 20.978035 20.923098
          20.76205 20.21546 20.702215 20.262352 20.485893 20.071022
          19.640484 19.959217 20.19001 18.470469 18.348036 18.411917
          16.181442 19.678705 15.925953 20.397326 20.238466 20.185074
          15.427767 19.877785 19.130665 19.78838 19.155697 18.984228
          19.36119 19.757065 20.02713 12.698601 18.637447 19.894209
          10.619575 16.886497 7.026372 18.034712 12.148394 -0.8194834
          11.481514 8.287332 19.042368 1.6270527 18.712881 8.285295
          18.983343 21.988329 21.81743 19.200434 22.96836 22.503399
          19.299622 18.262974 18.80089 5.1618567 14.4782915 18.709797
          19.158014 21.175682 20.075245 19.408424 11.926657 6.919526
          16.42731 17.92109 15.498547 21.42067 21.469727 21.215113
          20.618464 22.665169 23.082115 22.770609 15.219116 15.534933
          19.177488 17.943544 22.380243 6.4717317 19.07244 15.784714
          15.862173 18.92177 19.229713 20.47152 20.071583 19.762829
          18.328133 17.09878 12.851573 7.259026 8.1595335 13.554308
          22.256063 21.820906 21.136223 0.8447347 -4.1430373 20.811417
          18.764162 16.51326 15.931236 17.671959 14.734858 20.060446
          20.654972 6.076063 11.523297 18.900124 18.755598 22.931273
          10.572572 7.828214 7.517527 10.359322 20.191736 22.424929
          22.124788 19.208565 17.316795 20.894758 20.958853 19.6013
          -3.9937294 17.712576 21.110895 -0.20932406 18.36963 21.004875
          12.650806 22.415096 22.31528 22.189093 4.970005 6.324845
          17.374172 23.103569 13.636636 5.3813295 14.578745 9.904794
          16.098228 16.460821 19.437578 19.354706 18.85476 18.854227
          21.98871 14.928214 15.188153 9.912938 9.595834 20.167618
          18.460835 22.78196 21.416008 21.873766 21.879185 8.821697
          8.991487 6.535035 14.327318 14.056194 18.859241 18.644053
          17.382227 15.5005865 14.681761 12.672069 18.04748 -8.488445
          14.062303 15.550333 19.103825 17.791811 8.472962 21.41872
          20.415558 20.279545 20.045565 10.731226 18.100594 17.54473
          16.688105 16.614285 15.564258 16.299013 15.600381 5.6537642
          5.5054517 4.6446476 5.34875 11.513989 11.966452 13.036261
          12.11951 22.33437 22.081312 20.712118 22.056225 22.073227
          21.310904 -1.9778064 -5.5445857 13.416574 20.9123 20.93719
          20.93657 20.93792 12.831687 15.410248 14.304373 14.351715
          22.317673 19.452656 16.74809 14.403944 16.734598 11.4711485
          12.078739 12.6409855 12.59348 18.430187 17.502829 18.551723
          15.773528 15.757541 15.820472 14.523675 20.34294 21.638453
          20.782923 22.532364 8.544023 11.397076 22.834402 13.051501
          13.596965 8.492416 9.499029 6.121385 13.523451 17.203884
          15.314934 5.302819 7.1348653 6.684937 11.15837 11.199543
          11.391113 11.289483 10.806217 20.534601 20.164242 16.57306
          18.904202 17.62656 16.677265 17.31596 16.499691 22.212248
          23.062454 22.976387 21.720583 21.380613 19.690628 7.2529917
          8.269665 -0.22397342 18.251173 17.969585 17.822802 17.959702
          17.122675 17.782368 -1.0218115 9.100934 8.977511 5.926659
          22.741936 21.381641 21.940228 19.40508 -8.263085 -5.1904597
          -2.850735 -3.3515263 -4.716695 -5.727786 -4.308298 -2.6939406
          18.927443 20.36932 17.373035 20.805977 20.667614 20.59056
          19.731173 19.528088 19.846714 21.495625 21.05979 18.95776
          18.253134 18.136597 8.788924 4.2448463 20.528107 19.085794
          17.712814 17.384909 14.160737 10.597906 10.492517 5.859674
          8.334091 10.150572 21.339634 22.719736 23.150293 22.861486
          22.607634 14.99005 15.808895 22.00263 20.508936 23.07662
          21.484745 -6.5370617 18.425209 18.942066 5.758382 22.505325
          18.916523 22.198471 12.27109 3.1431155 21.4217 22.283438
          19.287842 12.839596 0.0649784 21.127403 6.097016 -0.47975528
          6.657205 22.24257 21.243639 21.495193 -6.8868556 20.021385
          1.9680171 8.693987 7.0210075 12.243957 11.064209 3.2972686
          7.5414033 8.443331 20.04892 16.372293 23.111727 10.304729
          8.348981 -3.6848001 20.211788 -1.0459766 -0.622964 18.2907
          7.2277555 15.835048 4.0234585 18.651917 8.980727 20.478224
          20.721416 21.022516 15.270495 19.476168 8.729051 18.794235
          19.176645 17.154839 0.99135995 -0.6557609 17.836813 2.767877
          -1.0618694 0.8388839 22.303236 21.974653 -9.679704 -5.2699895
          6.017289 9.388103 21.916952 21.773321 20.453545 21.349873
          19.245789 15.909354 13.133638 18.673098 18.836246 18.715591
          18.615618 19.738228 21.786747 19.078062 15.576453 18.487429
          14.799321 18.111143 19.264828 22.90438 22.473824 19.836994
          19.363907 2.2906153 0.7673804 21.213572 21.542747 7.0236263
          19.052927 11.236679 21.3151 20.872805 19.005365 18.882185
          18.805672 18.555202 12.355461 16.627583 -2.405919 14.487742
          -3.9448178 16.19038 14.727338 -0.4699803 23.744099 21.38961
          1.2864894 22.768127 12.643046 22.669243 19.144266 22.643723
          -2.222543 12.559222 19.494001 19.55287 22.698668 11.067535
          15.52768 16.92833 15.499976 15.687444 22.846045 22.86759
          9.06685 21.668266 -3.669984 22.218983 15.73359 -3.4577227
          -2.3891716 14.764439 21.596582
        </DataArray>
        <DataArray type="Float32" Name="rms [kgf/m²]" format="ascii" RangeMin="1.1654411554336548" RangeMax="14.850924491882324">
          13.090597 12.509379 12.583424 14.107819 12.396902 9.934835
          13.959995 12.664801 12.549869 2.0069537 3.369401 13.449756
          12.234553 13.491509 12.516763 12.459609 12.715684 13.870962
          12.365582 12.626443 11.060328 6.4745007 12.65901 13.391882
          12.677291 12.7036 12.784948 13.612182 13.156182 1.2383984
          13.274032 13.569729 14.449188 13.678229 13.329589 14.504757
          13.893839 13.579798 12.54327 12.024405 12.531837 12.426984
          13.925864 12.464581 9.97848 12.581064 12.654532 12.33771
          12.644375 13.599082 12.664962 1.1753907 3.0675972 11.556428
          12.4859705 12.518453 13.656581 13.927218 13.788184 13.032437
          14.620685 12.494988 13.099894 12.532084 13.331326 12.550442
          13.019141 12.841866 12.6775255 12.484665 14.215872 12.961124
          13.647459 14.191223 13.699104 10.948607 10.579735 8.247184
          11.620385 6.295286 8.586699 9.178578 12.601549 12.752285
          12.721525 12.066099 12.681685 12.157469 12.06619 12.496774
          8.03401 12.891692 12.870569 13.889397 12.61803 13.966738
          13.405643 13.98366 12.558044 12.236997 13.090393 12.952925
          1.2360772 12.504444 12.729809 12.55276 12.316411 13.126539
          12.575277 14.463118 13.991288 13.920797 13.419825 12.589221
          13.984789 13.931921 12.172064 13.619278 13.715852 14.113706
          13.426986 13.582102 14.267246 14.750969 14.456023 14.224689
          14.583668 11.995049 12.128668 12.988787 12.672055 12.4653425
          12.836075 12.643022 12.460827 12.530212 13.147042 12.099224
          12.490668 12.453021 12.587566 12.05328 10.688189 10.5667715
          9.874789 12.513064 12.66142 12.58151 12.7656975 12.497858
          12.387649 12.436772 13.118339 12.232809 9.611662 1.3024864
          6.064853 5.9935975 3.6650662 1.6498548 14.151043 12.101583
          13.713299 13.341202 13.330084 12.538933 12.587472 12.573937
          12.522666 12.556911 12.99971 13.090155 13.081175 12.932506
          12.141119 12.351549 12.538088 12.732195 12.795369 12.78314
          11.707539 12.092057 10.128244 9.33134 13.224386 12.751158
          12.905982 12.71248 12.159718 12.220398 12.699396 12.655948
          12.173348 13.079637 13.1970625 1.9639449 1.1920223 1.1825653
          12.356423 13.143176 12.702607 12.934669 13.288618 14.039471
          13.125363 14.349714 13.970119 14.264572 14.436076 13.673568
          13.673298 12.990222 12.27838 12.20437 12.724963 12.519995
          12.752573 12.613714 13.148636 12.933122 12.932341 11.924679
          12.023729 11.951296 12.147486 12.486194 12.465842 12.671185
          12.555715 12.457167 12.421016 12.054252 12.653022 11.952455
          12.382069 12.215464 10.961577 11.407732 10.750075 9.617193
          12.707586 12.626026 12.55634 12.673518 12.338141 12.44907
          12.556767 12.503269 12.041549 12.217684 13.752714 12.70091
          8.875612 5.1670523 1.1654412 1.1876789 1.335603 3.4276695
          12.297764 12.716557 11.5281315 12.776384 12.530779 12.4970045
          13.920379 14.023396 14.265874 14.316576 13.325882 13.58047
          12.748827 13.240891 13.217123 12.810036 12.523489 12.459039
          12.329781 12.598479 12.582683 12.587388 12.657418 12.654817
          13.153762 12.513273 12.8868885 12.670432 12.485754 12.683552
          12.944402 12.696733 12.222664 12.631543 12.027275 13.223426
          11.992038 11.91551 12.382101 11.99589 12.4258 12.14329
          12.866692 12.655299 12.834589 12.832177 12.090497 12.99989
          12.26338 12.708222 11.839185 12.38204 11.642746 12.681141
          12.824906 12.643118 12.595859 12.644335 12.908968 11.849986
          12.252955 11.840883 11.371314 11.710379 12.622155 11.3858185
          11.252308 10.554282 10.292894 12.368935 10.8173895 12.529048
          10.925407 10.019248 9.4689 6.404647 6.2151604 12.363732
          12.548441 12.240978 12.14128 12.074503 12.507986 13.164962
          11.907548 11.9539175 12.695253 12.482768 12.47585 12.533275
          12.489441 12.258958 9.933395 11.270383 12.808835 12.636125
          12.58648 11.154588 12.725158 11.020242 12.494964 12.491112
          12.600182 12.21052 12.760948 11.028399 12.518813 11.692628
          12.618328 12.521858 10.945946 12.5237665 5.5882273 12.1629505
          13.172879 14.165761 12.5849085 12.414657 12.7416525 12.821091
          8.607599 6.587266 5.4166527 1.3998647 1.6956904 1.2333785
          12.591915 12.511736 12.437749 12.65191 12.564536 12.619788
          12.468426 12.45273 12.493299 12.34841 13.789965 12.930106
          12.696613 13.061675 12.887568 12.699 12.6961155 12.634293
          13.924729 14.445565 14.244694 13.886702 11.4807415 12.419293
          13.860414 13.995156 14.436335 13.809276 14.534192 12.5204525
          12.304471 12.171985 12.383174 12.394869 12.404929 12.544739
          14.461126 12.231054 12.808539 12.661396 12.89268 12.646234
          14.100721 13.591127 13.283276 13.129364 12.527761 12.145321
          12.531046 12.109543 12.183948 12.870453 12.314206 12.160772
          11.963033 10.921598 11.661774 9.809558 12.608681 12.371259
          12.463937 12.502423 12.496538 12.5025215 13.386432 13.202921
          12.285595 11.128343 8.647289 13.600082 10.665666 10.606905
          12.8880625 10.260075 12.622505 12.4017105 12.480094 12.961118
          12.877633 13.139996 11.784062 12.17066 12.134216 11.985478
          12.025663 12.138619 11.1611805 10.280452 3.676095 11.475734
          12.23595 12.20996 11.203341 12.781383 12.706702 12.6771965
          12.582441 12.558284 11.072394 12.554658 12.728144 12.682326
          12.866829 12.582115 10.807923 12.44907 12.576088 10.500558
          6.0862584 14.142139 12.534301 13.073722 12.194141 13.719229
          13.785769 14.773808 11.78976 11.340025 12.68757 12.545513
          12.470616 12.528922 12.520325 12.6098795 12.284435 12.689474
          12.642253 12.568311 12.210596 12.221352 11.948428 12.403781
          12.446183 12.487279 12.551888 12.44471 12.449458 12.597725
          12.509247 12.608262 13.142342 13.197333 13.996339 12.572818
          12.248121 12.228136 12.43916 10.960501 13.017093 10.917064
          14.286538 14.406503 13.909863 13.92515 9.278482 12.562061
          11.997632 12.124398 12.097401 12.340715 12.56043 12.672986
          12.658908 12.8107195 12.637555 11.427933 11.393869 11.618055
          12.004292 11.836337 11.236911 10.306153 12.526199 12.808644
          12.760246 12.748561 12.667699 12.770518 12.683513 12.664135
          11.187852 13.061343 12.189506 12.514519 12.553089 12.517121
          12.606366 12.437886 9.127775 7.196698 12.806987 12.611697
          12.092647 12.295865 14.039869 14.127419 14.230935 11.87469
          12.587563 10.890384 11.409879 14.214747 14.436093 14.596952
          14.686659 12.352363 12.854977 13.171911 12.835699 11.239238
          11.7997055 11.137248 13.588458 12.4337225 12.535223 12.682755
          12.713778 12.816156 13.277658 13.140341 12.019717 12.177293
          12.041931 11.901044 11.904816 12.190736 12.213902 12.603146
          12.389892 12.231736 12.717103 12.609721 12.345657 12.0368395
          12.018658 11.973313 12.676921 12.62206 12.351507 12.2064905
          11.935368 12.206387 11.870306 12.512635 12.2758875 12.753019
          12.03089 11.969033 11.546199 10.639542 11.250451 10.400668
          9.357646 9.485157 12.521212 12.677394 12.522183 12.492842
          12.530259 12.593651 12.4719305 12.512525 12.36574 12.296033
          12.493235 12.454241 12.356742 12.447763 12.602052 12.565567
          12.651159 12.524416 12.541417 12.637089 12.518136 12.537937
          11.054904 13.655583 13.901885 13.756175 14.013133 13.408749
          14.2840395 14.214468 13.866462 13.452529 13.166823 13.757475
          12.844599 12.17679 12.640115 12.993078 7.404753 9.801229
          9.808739 13.782352 14.344449 14.138234 13.137205 13.502946
          13.4694605 6.6362386 12.070046 12.214618 11.981654 13.022917
          12.506309 12.298733 12.559126 12.607804 12.978468 12.005885
          11.973133 10.173737 12.589696 12.137831 11.911792 12.00105
          12.358305 12.645029 12.234444 12.422393 13.227059 12.21882
          12.615539 12.782955 12.43285 12.428234 11.944139 12.844484
          12.507074 13.481345 11.518366 12.195602 12.676736 12.657958
          12.5477915 12.713453 11.772255 12.121455 11.913052 12.081491
          11.768044 11.809772 11.814165 11.901863 12.104622 12.437511
          12.111111 11.801507 11.914455 11.818051 10.708374 11.005429
          11.257303 11.285362 13.326386 9.210518 8.998522 7.1856117
          6.0366235 5.954016 4.8914986 5.837727 5.7902093 4.835
          12.979098 11.676537 12.465633 13.238528 13.435457 12.114761
          12.169208 12.863398 12.7510395 12.73358 12.571609 12.667839
          12.6424055 9.022965 10.995021 12.82566 10.093554 12.841826
          12.920623 12.899064 10.093558 12.200283 10.0717535 12.902265
          12.646537 12.809121 12.590974 12.678985 12.79366 12.710317
          12.710704 10.045423 12.113039 9.985156 12.60909 12.615667
          12.523064 9.966376 12.037072 9.98571 12.653817 12.676776
          12.743362 12.623117 12.531423 12.30456 12.834471 12.701128
          12.24045 11.907187 12.184234 12.312473 12.080759 12.46052
          9.99627 12.135164 9.891114 12.657761 12.5893135 12.626285
          9.810428 12.453206 12.0890045 12.596629 12.401036 12.582955
          12.405623 12.58997 12.661362 8.432489 11.907703 12.631684
          7.3316097 10.967446 5.274681 11.960157 8.827605 1.2578396
          8.34821 6.448491 12.681776 2.333803 12.218602 6.0161486
          12.8296995 13.799585 13.742686 13.129523 14.051394 14.136998
          13.270673 12.38538 12.421935 4.4644547 10.15827 12.82542
          13.267975 13.768226 13.911885 13.823619 11.858787 9.273068
          12.25776 12.561377 12.808332 14.034375 14.080962 13.953976
          13.740186 14.415602 14.103148 14.315746 13.958081 14.038275
          13.236502 14.36156 13.952096 5.6754594 13.098345 11.233398
          11.086999 12.96326 12.548997 13.005648 14.388903 14.265359
          12.160113 11.8111725 10.210221 12.510171 12.49048 11.161547
          14.0317745 14.004862 12.658107 8.89665 5.9410877 13.080154
          12.860266 14.265639 13.490284 12.872163 11.114195 12.308943
          12.691616 9.463632 9.783575 12.251801 12.091465 14.212307
          13.02713 12.714167 7.9961123 9.6198225 14.540385 14.5697775
          14.178872 13.116117 12.247446 12.73253 12.677712 11.89513
          6.6379867 12.014032 13.132553 1.4686152 12.681002 14.179087
          11.187618 14.452767 14.534127 14.680449 11.248764 11.149785
          11.898591 14.3992 10.036454 4.7111993 10.603223 7.6396437
          14.195414 14.270082 13.323502 13.274575 13.357271 12.989557
          12.73192 11.746887 11.760388 9.309306 9.180283 14.560735
          14.339132 13.819819 13.570498 13.841052 13.759883 10.04472
          9.061332 7.9400306 10.474575 11.033707 12.932902 12.804724
          11.905583 10.982551 10.364992 9.16586 11.616704 8.161987
          10.653846 11.058152 11.828661 11.645757 10.995522 14.693611
          14.468192 14.478435 14.489775 12.267041 11.972226 11.884221
          11.551004 11.6925745 11.81395 11.511503 11.31273 12.171399
          11.924864 12.405889 12.3754425 13.163744 10.513956 11.013417
          10.643297 14.762475 14.4562645 14.546601 14.488823 14.019076
          13.908108 8.677611 7.7207413 10.406655 12.841808 12.898478
          12.846567 12.732279 11.0782795 11.578882 11.671532 12.795842
          14.388294 14.506407 14.181866 13.753434 14.109392 12.472875
          12.645316 12.80357 12.599828 13.213754 12.875505 12.875643
          11.23866 11.249348 11.448807 10.93047 12.572258 12.585208
          12.428973 12.950391 9.248796 9.7818365 13.912802 13.562892
          13.647613 12.831062 12.879337 11.330131 13.635688 12.606131
          13.233694 6.531748 7.7223616 7.4723744 10.136126 10.159904
          9.984643 9.966127 9.69001 14.422324 14.683696 13.5696125
          14.510492 14.157251 13.816973 14.132428 14.100577 13.774559
          14.3638935 14.066753 13.875673 13.830393 13.317409 9.206028
          11.244906 1.6743098 12.429929 11.986051 12.278951 12.369488
          11.855725 12.007023 1.2122984 6.9626136 6.888006 4.90497
          12.88542 12.8414 12.652635 11.928149 7.9813986 6.6425257
          5.647205 5.052528 6.199104 6.2215223 6.4618354 5.3666873
          12.509211 12.782412 11.894715 12.685143 13.04339 13.174233
          12.575926 11.94955 11.930947 13.855961 13.96658 13.032809
          12.253539 12.177966 6.763733 3.9411464 14.03762 13.793835
          13.414406 13.290577 12.50868 10.918934 11.464562 11.353525
          10.850731 11.013945 13.829143 14.403042 14.033592 13.996535
          13.939053 10.998784 13.245832 13.957271 12.441133 13.675205
          13.012816 7.7688065 12.697384 12.6926365 10.713709 12.761375
          11.887868 12.876841 9.214124 4.221699 13.935595 12.656731
          12.53603 11.494456 1.575375 13.962636 7.464024 1.3574228
          5.3794885 12.678218 12.580389 12.477595 8.484804 12.6558485
          2.54268 11.588962 5.6848235 9.491892 8.603834 3.720073
          6.301162 7.170112 12.655247 13.57535 14.210291 7.9921894
          9.264296 5.5213923 12.952954 1.2031876 1.3237227 14.504475
          7.7812514 11.251696 4.7847652 12.788242 11.525323 12.635145
          12.875474 13.035038 11.216503 13.252435 9.3808775 14.329424
          14.754063 14.152634 2.3881595 1.4192309 11.892569 2.9930468
          1.2060698 1.9454564 12.744606 12.590107 7.9859214 7.2231865
          11.161799 9.367775 14.288479 12.511342 12.925239 13.552041
          12.383948 10.524358 8.848258 12.549313 12.375677 13.516663
          12.023345 13.449907 12.345059 12.551455 10.339998 12.388055
          11.094415 12.765854 13.311429 12.899921 14.505573 13.934169
          13.4467535 2.810598 1.9041255 12.481999 12.58746 10.432426
          11.989506 9.712935 12.703725 12.219822 12.439215 12.135916
          12.478568 12.470364 10.004868 12.768309 2.4975653 11.042656
          5.721007 11.515669 12.710384 1.5366349 14.8509245 12.583288
          2.380557 12.980741 10.016158 12.985754 12.381645 12.791007
          2.7779558 10.004481 12.120325 12.174105 12.963272 8.314377
          11.135234 12.817949 11.218427 11.187501 14.377085 12.882039
          11.166801 12.573546 6.241744 12.906358 13.041947 5.446573
          3.0808902 12.919584 12.51702
        </DataArray>
        <DataArray type="Float32" Name="min [kgf/m²]" format="ascii" RangeMin="-44.62572479248047" RangeMax="-5.702877044677734">
          -20.40344 -19.398636 -20.742672 -28.659086 -20.333542 -21.483166
          -33.58465 -16.746851 -18.175734 -6.0822263 -6.7024703 -30.456032
          -25.21779 -25.570347 -21.651815 -19.930538 -21.353668 -24.934109