<?xml version="1.0"?>
<VTKFile type="PolyData" version="0.1" byte_order="LittleEndian" header_type="UInt32" compressor="vtkZLibDataCompressor">
  <PolyData>
    <Piece NumberOfPoints="3771" NumberOfVerts="0" NumberOfLines="0" NumberOfStrips="0" NumberOfPolys="1257">
      <PointData>
      </PointData>
      <CellData>
        <DataArray type="Float32" Name="mean [kgf/m²]" format="ascii" RangeMin="-16.46860694885254" RangeMax="21.5509033203125">
          6.6450233 9.494298 8.952653 8.634785 5.8265543 -9.195572
          3.4774954 9.578667 10.04943 -0.42028505 1.170011 4.3397765
          8.547097 15.087566 9.989266 9.148404 6.7403483 5.1655064
          4.7724686 7.323845 -0.7890828 -11.077344 10.403227 12.611302
          9.756985 10.783182 16.23665 6.736094 9.752425 -1.2185607
          13.291115 16.287222 7.683778 18.812172 8.147877 0.3803131
          12.923964 9.493659 9.495903 0.57351166 9.668459 8.917219
          7.279609 2.8565354 -4.696594 9.774298 9.572526 9.214046
          10.968608 15.746526 8.926849 -1.408434 0.75246966 7.72721
          9.197779 9.159429 16.890339 14.956363 15.587856 8.782603
          5.162505 17.317152 9.257297 8.604101 10.636322 9.255712
          4.9137135 11.459336 7.667662 8.164996 2.76558 0.33477294
          1.2634256 6.9394503 7.4229326 0.241485 -7.590828 -9.857527
          0.93256116 -10.215883 -10.139768 -10.802935 9.335417 10.500719
          10.196348 10.00313 9.999055 8.615915 9.352682 10.402882
          5.3823967 8.003377 17.703213 14.846044 6.4778295 12.749199
          6.412082 13.779369 8.962468 8.473596 10.168112 9.152515
          -1.3144228 9.248168 9.149168 8.882157 8.702564 9.769785
          9.279622 11.383189 8.264801 12.904339 18.171331 12.991226
          13.690605 14.0087185 8.021899 14.189798 9.515614 4.715849
          19.74004 17.177147 6.991451 0.5899808 3.1293364 8.931168
          11.422188 7.814535 8.886569 6.081875 7.6896987 9.299359
          11.138687 10.797366 9.531347 8.786707 1.4408505 0.77044225
          9.50587 6.5123506 6.3630414 4.203168 -1.4810904 -1.8109735
          -9.419557 9.359557 9.48879 9.57843 7.702348 9.435572
          10.3324795 10.254103 20.529663 8.631647 7.026197 -1.1799221
          3.3828425 3.839483 1.5221437 -0.66987455 7.689064 8.5372
          16.61701 17.231867 13.519301 9.361744 10.513558 10.184735
          9.208309 9.373333 7.5991793 8.322704 10.29915 8.315852
          1.8368171 7.651774 10.348398 11.303874 7.405845 5.553001
          0.95059043 4.2567935 -1.735833 -9.858687 13.917965 10.081689
          11.0494 10.821839 9.934134 8.924544 10.426222 10.031176
          8.709611 12.507213 11.420287 -0.18459359 -1.3160788 -1.5134176
          8.6729145 10.004218 11.392979 10.718828 20.998695 15.453026
          9.112249 9.410427 7.4181786 10.846058 12.977899 11.479782
          8.040546 7.907568 7.472677 6.90687 7.6639853 9.378077
          10.919826 7.3596373 7.5266504 7.061691 2.4805617 0.20676254
          -0.16649014 5.4326186 6.625374 10.25736 8.464496 8.05417
          8.339576 5.681397 6.0242767 4.224501 10.027075 2.9084122
          5.051022 0.37690926 -0.5572045 -0.22048019 -10.985776 -9.043135
          9.650281 9.297321 9.205334 9.935297 8.95321 10.259147
          10.888255 10.80173 9.941191 8.56873 14.456259 9.019524
          5.623337 2.5284827 -1.4820924 -1.4096601 -1.1703441 1.042347
          8.745189 8.97222 8.242925 9.089419 8.990215 9.013714
          15.369442 13.789767 8.333845 8.417164 10.995675 14.397653
          16.222973 11.712778 8.847615 7.50062 8.52398 9.235271
          6.404217 10.044897 10.927194 9.856532 9.707462 10.612745
          8.039278 8.789503 11.197368 8.173411 12.51833 10.670763
          7.612519 8.940214 1.5204723 2.3710809 3.0990934 4.8651576
          3.9528348 4.534967 11.46107 11.159653 8.22131 10.543877
          11.296427 11.032463 7.5805902 7.598635 8.9243555 7.0779715
          3.792966 5.0491066 2.9833505 4.420772 2.1707327 6.374443
          7.0767155 6.8336663 7.7343736 7.8088636 9.416104 2.1715448
          6.0113015 3.7238905 -0.84520143 -1.0442569 4.385659 1.2922133
          0.59456885 -1.7319425 -4.45571 -16.468607 -12.087346 2.6641982
          0.6176333 -2.6238365 -11.577351 -9.944134 -10.792015 12.063095
          9.555798 9.727746 10.216342 8.979156 10.725312 15.27174
          8.648781 8.578973 8.905843 8.554659 9.768225 9.4859495
          9.382792 9.312215 7.416186 8.482667 10.982814 9.736631
          10.244376 8.516069 10.885697 8.478622 9.377034 9.157595
          8.077671 8.472123 9.123052 8.083133 10.651468 8.765524
          10.190696 9.923352 8.08987 9.632082 2.9604511 8.71777
          10.858988 12.288565 14.357409 8.570638 8.819401 8.899728
          5.278423 4.276188 2.8689182 -0.94346577 -0.4994345 -1.3310865
          9.344957 9.061157 9.236884 9.001945 8.950655 9.080052
          9.05299 8.8027935 8.915452 8.845285 14.158413 9.38237
          9.2280035 15.008126 12.75066 9.7125 9.846449 10.7012825
          9.472128 11.328869 7.11522 15.930362 7.880463 8.108009
          14.852222 12.041717 2.9682612 8.230094 6.163693 6.668469
          5.334224 5.2935877 9.878171 10.310284 9.772083 8.934778
          6.719343 1.7848178 10.835115 10.7762575 10.836876 10.0634365
          12.59351 12.121996 11.03925 9.8015375 1.7487913 6.4977546
          8.966126 4.9614124 5.0428786 8.23507 3.7546937 2.957996
          1.9358838 -0.5086514 0.87746745 -3.1199691 9.500549 9.6499195
          9.757739 10.984165 10.826411 10.900556 11.425071 9.711617
          8.792143 6.8503423 8.645675 18.480804 7.889832 7.650427
          8.921366 7.6899657 6.585003 1.7808292 8.782742 11.512442
          11.1172085 6.662525 3.2202907 2.3321545 2.2460625 5.0617247
          4.9688177 1.79991 0.77419215 -2.8475015 -6.622865 0.6468002
          10.152489 10.020905 8.777919 10.207195 10.003542 10.410831
          10.558576 10.650565 8.4512615 10.00922 10.045407 9.455428
          14.861121 10.36508 7.549609 10.168061 10.310087 7.6268864
          3.4758248 11.710473 8.662231 10.431315 7.765804 14.488665
          14.765964 6.987025 8.556971 8.421937 10.533119 9.743602
          8.779265 9.842678 6.809353 7.2827487 5.720607 7.0308895
          6.916415 5.4761863 4.6747823 4.343121 3.5163007 9.125956
          9.407659 9.434986 10.230216 10.394388 10.597197 9.931287
          10.537954 10.475171 13.642842 15.538448 16.063313 8.418751
          9.135761 9.26047 11.28076 7.577092 8.894528 7.31416
          12.181257 12.035912 14.854485 16.347801 6.5732694 2.5056834
          0.92183596 1.9372132 6.349236 8.438608 9.875112 10.588812
          11.045316 11.404111 11.454789 0.8219351 0.38851166 0.7098352
          2.1212487 1.452724 0.09002243 -1.2211652 9.6469555 10.80251
          10.874716 10.731238 10.681961 10.853374 10.471751 10.570626
          8.595142 12.439066 9.268774 10.568797 10.43691 10.13772
          9.978275 9.756878 5.7776136 4.320497 8.87798 9.09986
          8.746183 8.82861 14.314545 12.897403 12.434371 7.9877357
          8.134784 7.920149 7.9863005 11.105273 11.014806 11.70229
          11.811396 7.5027785 8.301588 10.021683 8.665257 8.407902
          8.242862 7.986285 13.925153 7.0979276 9.967428 10.504625
          3.5682786 2.8616338 3.4842 1.8570174 1.3353511 6.994713
          4.2019176 4.938991 4.811753 5.9788218 6.75542 8.3719425
          5.9571238 5.282328 6.5487847 6.6738415 5.638773 4.6415105
          4.5746803 3.917821 7.698423 10.886358 10.090171 7.920929
          2.9050775 3.9607146 1.9245988 4.623818 6.352794 4.150985
          -0.011536165 3.0691788 -5.393071 -1.6392838 -0.42069972 -9.584194
          -5.8730145 -3.6382527 9.319556 9.722635 9.25826 9.219215
          9.5217085 9.786399 9.724391 10.171794 8.943783 9.013944
          9.648617 9.328652 9.880785 10.003906 10.7508545 10.821473
          10.972314 10.791076 10.696988 10.929719 10.599719 10.547592
          8.17202 19.682991 15.310579 14.5866165 15.84007 11.734682
          11.348311 11.913541 13.063738 11.306213 10.0919695 12.071342
          8.370555 9.978652 7.738465 9.923637 6.961734 6.9231462
          6.981117 12.773257 6.6905823 8.45541 13.360956 14.897771
          14.656473 5.8818083 8.765792 8.652094 8.154489 12.625166
          7.3885374 10.790879 10.699956 9.20842 11.129798 10.137959
          9.970456 7.858798 7.6305203 5.2814455 1.5924356 2.0886395
          2.506457 3.4122298 2.5463862 1.9678696 5.605024 1.5982189
          11.211065 10.376038 8.223244 8.888552 10.776067 11.406095
          6.8223243 6.96383 2.5539422 3.6487784 6.548652 6.920216
          8.54599 10.618966 0.9669506 1.490441 2.4951973 2.9676507
          1.2677073 2.5339172 2.6448152 4.9355917 5.8842306 6.4340296
          5.269796 3.4500759 4.227911 3.298677 -2.7196074 -2.2515545
          -6.0910435 -2.9239128 4.466903 -7.4313173 -9.713821 -9.461087
          -9.748731 -9.267856 -7.8041196 -10.255958 -9.456415 -7.9849606
          2.0616608 1.4165305 10.962023 10.358142 8.181891 8.552908
          8.236644 8.489363 10.122314 9.884302 9.576634 9.681949
          9.786119 6.1585283 8.696105 10.717734 7.342439 10.915411
          11.013602 10.859185 7.411267 10.033997 7.244621 10.8316555
          10.46453 10.737622 9.815527 9.7891445 10.517209 9.984099
          10.467831 7.1991763 10.003704 7.231671 10.8328285 10.858653
          10.836655 6.988187 9.968843 7.023242 9.874238 9.391523
          10.821867 11.343243 9.07837 8.948283 12.448726 11.65886
          8.834458 9.231592 8.868656 8.540384 8.128677 8.689532
          6.640447 9.773332 6.360475 10.820934 10.626121 10.4760895
          6.6611347 9.907429 9.231394 9.9933605 9.884345 9.891785
          9.943631 9.784321 9.948194 5.790408 8.899812 9.786214
          4.697449 8.022305 2.6089475 8.475055 6.335213 -1.1659014
          5.938679 4.139724 8.758567 0.15621205 8.694038 3.4262443
          9.445558 15.792716 16.529037 16.200285 10.330964 8.296423
          10.851085 8.549853 8.926822 2.327914 7.5621653 8.796012
          15.280399 12.853038 15.318485 14.902601 7.6254096 8.822668
          8.072833 8.330907 8.11629 15.792024 17.415735 15.173248
          14.887402 10.174693 12.055022 6.823821 12.729754 13.09513
          9.58869 13.618761 15.971779 3.1298747 9.726833 8.387196
          0.58563775 9.184 8.999084 21.550903 10.272138 10.389597
          8.8420925 8.649675 -1.1375437 10.441728 9.678749 6.778399
          16.141617 17.293457 7.163676 -9.645778 -9.679484 13.420199
          9.023495 12.935081 12.507305 8.547152 8.028968 6.442869
          7.9516425 -7.533345 -2.8030193 9.001112 8.9734535 12.129745
          8.565711 8.257711 8.426957 6.713542 11.564794 8.935572
          11.070521 16.148062 8.204668 7.962509 7.632372 3.931812
          -10.852316 10.64691 10.643416 -0.8349688 13.177173 13.5405245
          7.9143085 7.2651696 6.660231 6.330477 9.038585 10.269853
          1.6391954 7.35728 6.987076 2.2182696 7.7410307 4.8766103
          12.553177 13.043925 11.118173 10.352239 10.617366 9.052272
          8.513487 7.9510636 8.042888 7.0463123 7.565093 11.473435
          11.941613 15.118535 19.236797 17.43397 19.035837 8.139635
          8.126097 8.976209 7.1977406 7.765712 9.114272 8.787986
          8.723009 8.073899 7.5705647 6.6229753 -0.22415617 -11.20466
          0.06013216 1.1456537 8.1527195 8.456695 7.377885 6.3432713
          8.698732 8.116212 11.18398 7.521753 8.717654 8.547967
          8.359017 7.997563 7.9578447 8.366319 8.365207 8.617137
          8.207543 10.829719 10.97803 9.479292 6.9729633 6.6909275
          6.5770063 6.2257285 9.940676 11.535378 12.828901 16.054352
          15.09979 -10.036282 -9.311546 -0.6170194 10.639613 10.288447
          9.604312 9.611175 8.105494 7.886791 8.165943 8.449626
          13.157011 11.596574 12.180781 12.935499 12.960124 7.2150016
          7.2310715 7.784591 7.396505 9.444379 8.506802 8.74125
          8.132163 8.009991 7.992083 7.9333115 7.2034926 10.196204
          6.015505 9.489975 -3.997539 -3.5003407 17.50073 11.920935
          12.306704 8.246638 8.137323 7.993157 11.907566 13.549989
          10.671895 5.537648 9.597558 8.665665 6.9157376 7.2831364
          7.4171104 7.4651847 6.820613 11.281529 12.047822 12.921772
          12.713483 13.117271 12.759377 13.1146555 12.998148 3.4636333
          5.6092925 10.336203 16.840212 14.504832 15.313333 8.263182
          10.346449 -0.23956561 8.559092 8.80952 8.331371 8.377504
          8.145225 8.39642 -1.3485129 4.688349 4.5569806 2.66402
          10.9586315 7.3884435 8.867177 3.5241945 -11.024078 -10.210926
          -8.314161 -8.408274 -9.904269 -9.3931055 -11.020762 -8.673542
          2.8860116 2.2981472 0.68914217 9.721634 13.432824 14.008288
          14.564696 8.526943 9.29543 14.274738 14.741699 9.845421
          8.6461935 8.724287 4.4561734 1.7785763 16.65728 14.329464
          12.515927 11.599417 7.759465 7.5838776 7.5343475 7.350171
          9.693891 7.6225963 17.510248 3.746739 13.446074 14.320877
          16.384722 7.014817 11.319903 15.174408 7.2767534 7.4352775
          6.4431953 -10.815429 14.993298 8.82837 9.575544 10.964618
          1.2876 8.995079 5.810899 3.3771148 16.051722 10.754607
          9.056671 7.9904647 -0.67623115 14.778293 7.7968717 -0.97402877
          3.1373012 10.308632 7.1937456 8.42272 -10.322722 9.855889
          0.39508942 10.084463 3.3160453 6.567252 5.388696 1.6523293
          3.1761074 6.0116644 18.772604 12.398264 9.276819 4.7613025
          -4.1119013 -9.435251 12.528974 -1.277697 -1.0952097 12.768044
          8.30823 8.075068 4.5122886 8.773887 7.4450836 11.109535
          12.086762 11.652109 8.043065 12.220532 -4.0262885 11.3420925
          11.955529 13.141361 0.37340277 -1.0595961 8.531164 0.85876554
          -1.2688092 -0.28049058 9.998106 9.699114 -10.132008 -10.011949
          8.14603 -3.9680114 12.461741 9.545805 16.275846 19.444021
          11.148378 7.462384 5.9441886 8.599512 8.594639 13.219037
          3.437105 14.311886 11.714054 8.78065 7.061601 8.7070675
          7.594106 8.551068 12.260915 11.569227 4.679868 15.840238
          13.171566 0.6410434 -0.26491818 7.4073377 8.035065 10.905807
          3.7841854 -3.4024181 7.6220818 8.977853 8.715694 2.9244623
          8.5562105 8.548398 -2.9684725 8.331967 -5.0522738 7.9930434
          -9.697436 7.913637 8.187872 -0.9598471 1.2107837 7.866966
          -0.011981891 11.329332 -2.331439 11.066958 8.885467 11.157846
          -5.2550416 -2.483374 3.1992373 2.6679163 11.221456 5.663764
          7.9358764 8.4637985 8.301057 8.279673 6.351042 11.192533
          6.891525 8.723805 -9.905033 8.3141985 9.288095 -9.378227
          -5.693053 9.408998 8.82373
        </DataArray>
        <DataArray type="Float32" Name="rms [kgf/m²]" format="ascii" RangeMin="1.3079167604446411" RangeMax="12.361612319946289">
          7.919187 8.260354 8.095552 8.945191 7.235562 5.0338907
          7.9604664 9.412722 8.95556 1.6646421 2.5842474 7.5275993
          9.115028 9.740283 8.247637 8.305481 7.740466 8.617065
          7.4369054 7.627187 6.2179747 4.1630373 9.358626 9.80062
          9.498603 8.932153 9.699416 8.213238 9.770585 1.3586059
          9.2258005 10.09881 8.76212 10.980344 8.79594 9.302733
          9.778895 8.578539 8.353359 7.1432076 8.194947 8.161769
          8.740875 6.7516675 5.1464486 9.19636 8.515132 8.658369
          9.594642 10.320632 8.728571 1.3237033 2.3939543 7.777796
          9.255001 9.235818 10.523707 9.798254 9.870932 10.090916
          9.32202 10.975851 8.481205 8.039551 8.814196 8.072863
          8.378784 8.626387 7.711154 7.9740753 8.254867 7.1493664
          7.7903905 8.927192 8.105751 6.3020415 4.939398 4.4945483
          6.1067433 3.8010008 4.3513227 4.4034534 9.384847 8.703121
          8.597678 9.2434435 8.881124 8.414754 9.374691 9.528899
          5.9122715 8.7061825 10.71788 9.720708 7.886306 9.315172
          8.137187 10.246538 8.788215 8.9011965 9.6616125 9.352371
          1.3460288 9.067933 8.931948 8.708218 8.865352 9.577706
          9.222037 9.754944 9.272719 9.926309 10.798657 8.672794
          9.518847 10.86415 8.7672825 10.997552 9.510996 9.702315
          11.561075 10.339829 8.995365 9.181358 8.700087 9.0877285
          9.393352 8.90191 8.663461 7.9446163 8.037814 8.4083805
          8.614398 8.449904 8.213033 7.9740653 7.471841 7.0682073
          8.131069 7.331515 7.3019323 7.056746 5.5407047 5.41552
          5.0156817 9.104032 9.282187 9.303681 8.566957 8.593538
          9.159454 8.906473 12.002333 8.861104 7.0462294 1.3716766
          4.3234177 4.516306 2.8191059 1.5338132 8.589789 9.64679
          10.486639 10.552202 9.319109 8.095066 8.409304 8.442243
          8.351436 8.436139 7.9775333 8.245459 8.567039 8.21814
          7.0322433 7.679607 8.270908 8.535389 7.9335046 7.9868736
          6.0249286 7.433579 6.077407 5.022942 9.994867 9.181073
          8.809331 8.968134 8.834524 8.493886 9.670462 9.566086
          8.535092 10.669189 10.315281 1.7579331 1.3423545 1.3207595
          8.961071 9.786096 9.886009 9.799731 11.962147 9.767577
          9.772656 8.703792 8.327821 9.316635 9.48491 8.956933
          8.247984 8.097487 8.0290575 7.8597746 7.8890243 8.208281
          8.546161 7.8214216 7.995321 7.7918 7.3130054 7.4782014
          7.327879 7.083982 7.403331 8.295888 7.9604263 7.768544
          7.8522725 7.4973187 7.340662 7.14911 8.041219 6.6833215
          7.061003 6.29611 5.9875765 5.8222246 5.025638 5.0451326
          9.312577 8.378107 8.404854 8.720663 8.458567 9.313764
          9.293875 9.508796 9.516887 8.90703 10.083615 8.80184
          6.0607166 3.659304 1.318313 1.3216128 1.373322 2.5822148
          8.674694 8.774572 8.089004 8.872775 9.160589 9.221414
          10.369709 9.452138 8.927901 9.189996 10.501495 11.109533
          10.310074 8.928442 8.433914 8.00799 7.915315 8.128796
          7.907073 8.631441 8.701497 8.65078 8.307953 8.452037
          8.103817 7.9482393 8.413984 7.883845 9.023079 8.363209
          7.859383 8.2685 6.829329 7.1956463 6.6491914 8.478378
          6.7694416 6.9141974 8.511698 8.363761 7.833174 8.1480875
          8.604985 8.543537 7.7408056 7.961507 8.0849285 7.7814035
          6.7633243 8.195642 6.8271337 7.8693933 7.1751533 7.654585
          7.6353583 7.5108514 7.6802235 7.645582 7.9439254 6.55764
          7.6322103 7.0183434 5.7465425 5.763082 6.9161057 6.8406544
          6.515055 5.7773905 5.0630674 6.605903 5.34821 7.0413985
          6.088793 5.475967 4.3052783 3.6971707 4.0480895 9.801619
          8.983516 9.127834 8.987972 8.5475 9.723354 10.134988
          8.594841 8.468277 8.646582 8.589572 9.238542 9.362135
          9.262935 9.071938 7.1830525 8.007877 8.625128 8.484358
          8.692936 8.445957 9.2615795 8.793657 8.529158 8.550333
          8.171071 8.416029 8.87584 8.812007 9.6260395 8.967477
          9.354838 9.444594 8.196168 9.334301 4.0066094 8.73274
          10.177477 10.396303 10.883272 9.036455 9.237904 9.23847
          5.798105 4.918287 3.8670194 1.4277009 1.6171128 1.3412448
          9.185355 8.938613 9.004288 8.82962 8.824832 9.042137
          9.092756 9.059108 8.8347435 8.876091 11.102252 9.382657
          9.351137 11.353419 10.694884 9.309078 9.294013 9.487484
          9.179014 9.609171 9.062303 10.189587 8.572718 8.85613
          11.219429 9.143794 9.726266 8.35364 9.385138 7.3310537
          7.1653175 7.1448054 8.872157 9.036662 8.753348 8.761848
          8.9761 7.2909927 8.825735 9.025845 8.874288 9.530291
          9.3711195 10.5423355 10.691803 9.783525 7.1898594 7.42624
          8.1616125 7.258645 7.3603168 7.6623883 6.8734083 6.730761
          6.4468265 5.8235226 6.1684494 5.386817 8.553177 8.86855
          8.964426 9.491518 9.64019 9.546158 10.420452 10.315133
          8.799804 8.066191 6.794603 10.728402 7.9576855 8.032164
          9.33074 7.5609365 7.969449 6.9851336 8.007144 8.701118
          8.535615 8.269166 7.516408 6.442311 6.346591 7.2946434
          7.3707886 6.337089 6.6610928 5.381408 2.426535 6.070171
          8.479935 8.582638 8.020192 8.569064 8.607997 8.634861
          9.2888 9.508037 8.58998 8.873378 8.971162 8.6121235
          9.723484 9.705007 8.472189 9.368898 9.58539 7.6931286
          4.4165998 9.120004 9.097166 10.544349 8.7878475 10.561102
          11.147313 9.552309 8.517344 8.286741 8.431817 8.289768
          8.125147 8.208907 7.4074163 7.4570103 7.214501 7.4620595
          7.3664193 7.1844263 7.172896 7.0268044 6.905245 8.458356
          8.685697 8.586905 9.132088 9.28487 9.266812 8.78238
          9.124685 8.9680605 11.093182 11.684079 9.9282875 9.243327
          8.941971 9.001085 9.106653 8.535881 10.246539 7.9864993
          9.547035 9.412623 10.575237 10.384367 6.5574765 7.2698655
          7.3487206 6.9454803 7.2912397 7.780197 8.171816 8.380085
          8.465208 8.602589 8.580589 6.4756203 6.278992 6.0445743
          6.3746467 6.087597 5.7784443 6.1682224 9.414795 8.717241
          8.772242 8.824063 8.931878 9.091241 8.901936 9.154307
          8.300744 9.840391 8.611551 9.689435 9.673267 9.570864
          9.526716 9.434296 7.29164 5.383101 9.26728 8.9422035
          8.648714 8.682653 9.498555 9.312149 9.264521 8.672227
          8.918937 8.34466 8.447535 9.371361 9.401192 9.358831
          9.435048 9.0768795 9.821191 10.2150755 9.208213 8.366224
          8.571512 8.362711 11.116057 7.967511 8.264425 8.486704
          8.003508 7.6851354 8.062672 7.4906526 7.234069 7.598393
          6.8152695 6.9511185 6.972892 7.1481175 7.6819334 7.908063
          7.583225 7.4337354 7.5156503 7.4233923 7.3285947 7.2410026
          7.1587048 7.0422482 7.5858173 8.314585 8.068107 7.550414
          6.783881 6.971386 6.4524093 7.0771737 7.248746 6.982834
          6.0407586 6.944508 5.360032 5.4513965 5.7205224 4.987401
          5.1607037 5.358773 8.338484 8.517148 8.4145565 8.488303
          8.57948 8.614962 8.639903 8.74195 8.446238 8.576594
          8.807339 8.810583 8.981775 9.1529875 9.109151 9.288439
          9.475738 9.399425 9.508674 9.707357 9.609855 9.661241
          8.714625 11.309953 10.422332 10.695747 10.713727 10.767648
          9.224737 9.2402725 10.092919 10.274155 10.365523 9.895601
          10.0207815 8.908075 9.4808035 10.483276 6.2904844 7.502865
          7.4873276 9.872981 8.670852 9.109612 11.011141 11.225115
          11.477387 5.4699907 8.661135 8.896631 8.715234 8.874982
          7.8684835 8.215532 8.866637 8.290155 8.712542 8.128711
          8.191174 7.045924 7.587671 7.239374 6.728817 7.0354543
          7.2286286 7.826223 6.6474824 6.938356 8.53221 7.327901
          8.387049 8.23707 7.841974 8.075264 8.23066 8.5853405
          7.7812643 8.674248 6.937796 7.8025317 7.5632367 7.498137
          7.749854 8.232867 6.2358027 6.5316153 6.421178 6.587195
          6.276933 6.518239 6.720566 7.0981135 7.521072 7.713072
          7.405538 6.77633 7.1698833 6.9168 5.3386025 5.4631824
          5.0899987 5.4291496 7.112447 5.0509105 4.8337297 3.6896722
          3.6379683 3.4445937 2.896649 3.8392806 3.4982579 2.9269025
          7.4148793 6.156127 8.235669 9.281823 8.854991 8.451937
          8.344108 8.49787 9.259169 9.245741 9.254959 9.441424
          9.475694 6.5187383 7.6822968 8.648972 7.2557836 8.688816
          8.666653 8.770981 7.526658 8.714113 7.607996 8.689792
          8.540837 8.717221 8.441991 8.425063 8.752456 8.624666
          8.859188 7.791653 9.0663 8.025137 9.2271385 9.133034
          9.370692 7.9923635 9.379664 8.226061 8.772174 8.503778
          9.126555 8.854338 8.434004 8.418495 9.396194 8.86236
          8.435682 8.657429 8.712023 8.436934 8.350302 8.460959
          8.043283 9.491067 7.947349 9.740882 9.5621195 9.628334
          7.5023346 9.586456 9.11521 9.414455 9.105161 9.131544
          9.200512 9.4092655 9.53389 6.308484 8.732291 9.456308
          5.3813934 8.005099 3.7317111 8.710478 6.3673773 1.3593493
          6.098807 4.6833773 9.233568 1.9400826 8.547367 4.3454337
          9.33306 10.201465 10.479301 11.848899 8.997441 9.086643
          10.241069 9.009368 8.755034 3.3357897 7.4542007 9.225787
          11.414004 9.340288 9.746784 9.986428 8.668613 7.069449
          8.751262 8.934616 9.247826 9.86784 10.470581 11.150234
          10.832734 9.70914 9.180477 8.988944 9.5381155 9.703959
          9.7563 9.685366 10.257569 3.9618125 9.7759 8.310319
          6.336878 9.419309 8.820414 12.361612 9.450742 9.350661
          8.665684 8.526638 6.2000523 9.7482 9.757342 8.04687
          10.650039 10.612273 7.554876 4.769356 3.5984313 9.810118
          9.406348 9.50002 10.313431 9.313875 8.419983 7.948404
          7.8628936 5.017072 5.811582 8.814495 8.780716 9.203694
          10.130788 9.34621 6.472695 7.41581 9.370514 9.618293
          9.196997 11.831917 8.797732 7.806683 7.7417545 6.8286843
          4.09158 9.230037 9.422688 1.4529903 10.954541 9.316326
          8.36521 9.273805 9.174305 9.354568 8.30147 8.663613
          6.2725587 8.918282 7.1001563 3.331452 7.6081715 5.401683
          9.421318 9.530221 10.382704 10.117573 10.381278 9.44766
          7.69942 8.699749 8.873344 6.9824295 6.93433 9.343853
          9.287397 9.722622 11.001211 10.62578 11.066213 7.6544013
          6.933451 6.6966767 7.317954 8.324951 9.465589 9.257409
          8.547828 7.9844646 7.4461904 6.586037 5.8938932 4.0850816
          6.083411 6.21832 8.3936405 8.347337 8.242988 9.432675
          9.350142 9.522875 9.352674 8.948342 8.575769 8.585112
          8.418573 8.5188875 8.574187 8.364736 8.3186245 8.970171
          8.835988 9.330914 9.500284 10.352328 7.72827 7.882741
          7.739709 9.405562 9.574405 9.330254 9.4693985 10.678281
          10.737664 4.6192913 4.1285815 6.1345043 9.309926 9.219802
          8.9962845 8.806042 8.399186 8.482272 8.5928755 10.019756
          9.305848 9.469424 9.350402 9.852187 9.526933 9.152737
          9.399773 9.797871 9.495764 9.849857 9.176111 9.191078
          8.083997 8.362679 8.443678 8.293363 7.8595166 8.392474
          7.4193854 7.989269 5.325363 5.4962516 10.43225 10.203545
          10.238477 9.699592 9.766421 9.532014 9.995617 10.647746
          10.63002 5.081949 7.0121503 6.8848224 7.5649385 7.7266846
          7.5757136 7.7458253 7.4450355 9.215209 9.50623 10.350009
          9.3840065 9.4086075 10.002393 9.75642 9.728939 7.868309
          9.130839 9.0114 10.150711 9.641488 11.667852 7.34841
          9.250956 1.726118 9.036146 8.752313 8.854844 8.901055
          8.595188 8.683199 1.3079168 5.062712 4.9742737 3.595653
          8.320709 7.6785793 7.9133806 6.6701236 4.0047107 3.8549604
          3.1658313 3.0878916 3.7012148 3.428568 4.1508455 3.1991765
          7.043846 6.908201 6.181974 8.79862 9.522822 9.479563
          9.924052 8.479575 8.81807 10.527206 11.092458 9.791052
          8.935216 8.560393 4.891242 2.9623508 10.133976 10.256374
          10.902085 10.718392 9.124276 8.333063 8.5495205 8.314656
          8.893616 8.380672 10.414267 9.73589 9.463083 9.653566
          10.061532 7.7274084 10.648255 10.410109 7.868909 8.213488
          7.826433 4.029498 11.433222 9.175716 8.069905 8.449781
          6.1677785 7.8377094 6.3105392 3.733406 10.539287 8.359801
          8.874231 8.4568815 1.5132232 11.092024 6.807725 1.3932669
          3.9059799 8.22774 7.5559087 7.7822213 4.493139 8.379693
          2.0574396 9.568427 4.085861 6.720984 5.9315453 2.8083837
          4.326951 5.328943 11.175877 10.536925 9.254814 5.5323634
          5.24407 3.5136387 9.155086 1.3209088 1.3584263 9.383303
          6.249193 7.9835567 4.2246795 9.211304 8.562701 9.256926
          9.510331 9.608326 8.36349 10.682775 5.23331 9.4132805
          9.404999 9.470229 1.9381561 1.4144257 8.666722 2.3368344
          1.3319453 1.6887795 8.083348 8.028586 3.7534652 3.7892773
          8.266344 5.342786 10.09675 8.0739155 10.246153 11.1446705
          8.311945 7.5166006 6.302963 9.10715 9.005826 11.069133
          7.0833306 11.203862 8.6978445 9.155447 7.2007084 9.066035
          8.23286 9.089649 10.785355 8.655139 9.501823 10.024392
          11.080549 2.2093337 1.690114 7.552093 7.7739143 8.558371
          6.807129 5.4093976 7.715494 7.801927 9.081947 6.882704
          9.105417 9.052794 5.459986 9.119837 1.9057366 8.39903
          3.6050756 7.988622 9.711186 1.4605694 9.656649 7.723173
          1.8911632 8.653515 5.7739344 8.633043 8.990404 8.451211
          1.9643054 5.7081447 6.749522 6.91723 8.660526 5.9306216
          7.922382 9.302762 8.212729 8.205412 9.064125 8.453965
          8.313988 7.94851 3.6734393 7.6362076 10.192497 3.4836564
          2.0928402 10.395671 7.98961
        </DataArray>
        <DataArray type="Float32" Name="min [kgf/m²]" format="ascii" RangeMin="-47.407447814941406" RangeMax="-1.6809782981872559">
          -8.606084 -6.796283 -6.6547923 -9.770725 -9.876303 -27.20222
          -12.982657 -8.933181 -8.778645 -6.8749557 -5.593991 -11.097486
          -8.207902 -3.4432583 -7.7777543 -6.861814 -8.748694 -10.238698
          -9.613259 -8.164797 -13.2357645 -29.841574 -7.8926473 -7.1533294
          -8.910665 -7.344712 -3.624458 -9.116869 -9.618425 -7.9642873
          -2.0412276 -2.9754713 -9.55424 -4.534775 -6.7900896 -21.887182
          -11.01912 -5.0477457 -6.118275 -14.256145 -6.2911353 -6.1395416
          -10.119336 -10.668474 -18.322557 -9.57569 -8.649187 -8.579196
          -8.409493 -5.9707484 -8.233358 -8.041563 -5.965817 -7.2303367
          -9.051188 -9.652015 -5.9673233 -2.6965764 -3.003497 -9.960393
          -11.653847 -7.507577 -5.3291845 -8.474646 -4.109423 -7.4358897
          -9.898913 -4.870389 -8.216462 -5.8347235 -12.248824 -13.205666
          -13.804824 -10.418091 -9.306534 -13.220146 -24.959637 -27.229565
          -12.093119 -28.406366 -29.076847 -31.16349 -9.374858 -7.12281
          -7.3888474 -8.914911 -7.1820965 -8.490101 -9.115793 -8.613011
          -5.5605326 -10.46618 -5.5776215 -2.7388566 -8.936614 -3.2472467
          -9.457087 -6.7860594 -8.405667 -9.062988 -9.023484 -9.764851